LAMMPS Description

6000  atoms
 4000  bonds
 2000  angles

 2  atom types
 1  bond types
 1  angle types


0.0 96.396 xlo xhi
0.0 96.396 ylo yhi
0.0 96.396 zlo zhi

Masses

  1 12.0107
  2 15.9994

Bond Coeffs

 1    2.196    0.45106005 -0.67297933 0.5857145

Angle Coeffs

  1    0.0861  180.000000

Atoms

1 1 1 0.651200 64.157559 8.939688 85.795964
2 1 2 -0.325600 62.477852 8.115431 86.945310
3 1 2 -0.325600 65.837265 9.763945 84.646618
4 2 1 0.651200 26.445529 16.717304 68.116137
5 2 2 -0.325600 28.378290 17.734855 67.890672
6 2 2 -0.325600 24.512768 15.699752 68.341602
7 3 1 0.651200 4.478620 17.116451 8.566368
8 3 2 -0.325600 5.098894 16.330853 10.520826
9 3 2 -0.325600 3.858347 17.902049 6.611910
10 4 1 0.651200 94.572890 23.147715 92.931334
11 4 2 -0.325600 94.498382 25.005079 91.762378
12 4 2 -0.325600 94.647398 21.290351 94.100290
13 5 1 0.651200 8.952592 34.739026 12.300859
14 5 2 -0.325600 7.025500 33.715747 12.053828
15 5 2 -0.325600 10.879685 35.762306 12.547890
16 6 1 0.651200 5.671994 94.754541 24.032986
17 6 2 -0.325600 7.379719 95.849746 23.192742
18 6 2 -0.325600 3.964269 93.659336 24.873231
19 7 1 0.651200 41.987867 11.035976 86.270745
20 7 2 -0.325600 41.369314 10.117070 84.374745
21 7 2 -0.325600 42.606419 11.954882 88.166745
22 8 1 0.651200 87.948119 38.301521 82.154989
23 8 2 -0.325600 87.825077 39.198218 84.155640
24 8 2 -0.325600 88.071161 37.404824 80.154338
25 9 1 0.651200 62.585283 74.030706 45.913168
26 9 2 -0.325600 61.492013 75.890853 46.321117
27 9 2 -0.325600 63.678553 72.170559 45.505220
28 10 1 0.651200 93.441866 37.549923 4.368172
29 10 2 -0.325600 91.807864 38.612417 3.356759
30 10 2 -0.325600 95.075867 36.487429 5.379584
31 11 1 0.651200 25.219600 37.944730 92.622185
32 11 2 -0.325600 23.298179 36.899458 92.428903
33 11 2 -0.325600 27.141021 38.990003 92.815467
34 12 1 0.651200 35.421214 91.173796 66.699110
35 12 2 -0.325600 33.884041 92.328414 65.638087
36 12 2 -0.325600 36.958386 90.019179 67.760133
37 13 1 0.651200 13.684767 79.739559 72.935901
38 13 2 -0.325600 13.388712 81.906217 72.736519
39 13 2 -0.325600 13.980822 77.572901 73.135282
40 14 1 0.651200 76.229738 73.440731 47.807519
41 14 2 -0.325600 77.066556 71.710202 48.869034
42 14 2 -0.325600 75.392920 75.171261 46.746005
43 15 1 0.651200 88.454388 23.213220 59.859396
44 15 2 -0.325600 86.864719 21.698415 59.870784
45 15 2 -0.325600 90.044056 24.728025 59.848009
46 16 1 0.651200 35.355193 5.147582 14.788950
47 16 2 -0.325600 35.793265 4.231993 12.841746
48 16 2 -0.325600 34.917122 6.063171 16.736153
49 17 1 0.651200 79.861107 67.056443 39.560064
50 17 2 -0.325600 80.255876 69.189200 39.217555
51 17 2 -0.325600 79.466339 64.923685 39.902574
52 18 1 0.651200 55.269322 61.150383 31.469315
53 18 2 -0.325600 57.296314 61.051599 32.307977
54 18 2 -0.325600 53.242330 61.249168 30.630653
55 19 1 0.651200 54.456008 84.571614 51.178049
56 19 2 -0.325600 53.564706 86.511607 51.691681
57 19 2 -0.325600 55.347310 82.631621 50.664418
58 20 1 0.651200 65.506241 1.116020 60.529330
59 20 2 -0.325600 66.647988 0.374321 62.252150
60 20 2 -0.325600 64.364495 1.857718 58.806510
61 21 1 0.651200 71.535170 67.281633 65.307107
62 21 2 -0.325600 70.205677 69.029045 65.278684
63 21 2 -0.325600 72.864663 65.534220 65.335530
64 22 1 0.651200 81.605266 65.617061 54.488443
65 22 2 -0.325600 79.620613 65.001472 55.198380
66 22 2 -0.325600 83.589920 66.232650 53.778506
67 23 1 0.651200 35.115627 94.860760 72.913850
68 23 2 -0.325600 36.764472 95.405518 74.257859
69 23 2 -0.325600 33.466782 94.316002 71.569842
70 24 1 0.651200 63.300824 84.504175 35.179704
71 24 2 -0.325600 61.132820 84.220302 34.977258
72 24 2 -0.325600 65.468828 84.788049 35.382149
73 25 1 0.651200 59.608495 35.750629 20.438812
74 25 2 -0.325600 58.697727 36.773102 18.722170
75 25 2 -0.325600 60.519263 34.728157 22.155455
76 26 1 0.651200 13.724260 72.168202 59.137719
77 26 2 -0.325600 15.658223 72.499116 58.151771
78 26 2 -0.325600 11.790297 71.837287 60.123667
79 27 1 0.651200 14.467298 65.179866 66.793636
80 27 2 -0.325600 15.679009 63.624333 65.827258
81 27 2 -0.325600 13.255588 66.735398 67.760014
82 28 1 0.651200 24.400749 67.879847 63.994512
83 28 2 -0.325600 24.699828 66.312490 65.503072
84 28 2 -0.325600 24.101670 69.447204 62.485952
85 29 1 0.651200 92.572501 66.218966 83.673937
86 29 2 -0.325600 93.131475 65.758938 81.600840
87 29 2 -0.325600 92.013526 66.678994 85.747034
88 30 1 0.651200 93.225646 49.136622 42.188867
89 30 2 -0.325600 92.380966 50.397313 40.601736
90 30 2 -0.325600 94.070325 47.875930 43.775998
91 31 1 0.651200 81.580275 9.784159 40.509632
92 31 2 -0.325600 81.398927 11.095732 42.261402
93 31 2 -0.325600 81.761624 8.472585 38.757862
94 32 1 0.651200 27.620201 74.041446 14.415314
95 32 2 -0.325600 29.194073 72.606436 14.949619
96 32 2 -0.325600 26.046328 75.476456 13.881010
97 33 1 0.651200 50.132041 14.435194 43.292565
98 33 2 -0.325600 50.972715 12.992385 41.866598
99 33 2 -0.325600 49.291367 15.878003 44.718531
100 34 1 0.651200 50.797245 21.718067 41.893902
101 34 2 -0.325600 52.655560 22.886512 41.950555
102 34 2 -0.325600 48.938930 20.549621 41.837249
103 35 1 0.651200 6.534610 94.886867 39.439145
104 35 2 -0.325600 8.610263 95.594133 39.324046
105 35 2 -0.325600 4.458956 94.179601 39.554244
106 36 1 0.651200 88.629915 10.747170 82.833764
107 36 2 -0.325600 89.281809 12.759000 82.242679
108 36 2 -0.325600 87.978020 8.735339 83.424849
109 37 1 0.651200 86.574714 55.650201 15.603045
110 37 2 -0.325600 84.775029 54.520868 16.157616
111 37 2 -0.325600 88.374400 56.779533 15.048474
112 38 1 0.651200 45.164938 8.941638 25.217195
113 38 2 -0.325600 45.762848 6.847597 24.935584
114 38 2 -0.325600 44.567029 11.035680 25.498805
115 39 1 0.651200 29.492289 53.872444 90.540564
116 39 2 -0.325600 28.332917 53.319936 92.321688
117 39 2 -0.325600 30.651661 54.424953 88.759441
118 40 1 0.651200 69.531158 24.114219 4.434695
119 40 2 -0.325600 70.089491 22.057447 3.905768
120 40 2 -0.325600 68.972825 26.170991 4.963622
121 41 1 0.651200 48.957356 6.721561 79.246167
122 41 2 -0.325600 49.509366 8.388475 80.564687
123 41 2 -0.325600 48.405347 5.054647 77.927648
124 42 1 0.651200 46.549497 88.500106 13.260762
125 42 2 -0.325600 45.907667 90.507270 13.878142
126 42 2 -0.325600 47.191326 86.492942 12.643383
127 43 1 0.651200 29.887715 17.081917 94.439860
128 43 2 -0.325600 27.848424 16.478660 93.892883
129 43 2 -0.325600 31.927005 17.685175 94.986838
130 44 1 0.651200 48.896640 39.926368 96.348404
131 44 2 -0.325600 48.585865 37.753219 96.296871
132 44 2 -0.325600 49.207416 42.099516 96.399937
133 45 1 0.651200 24.360476 50.058991 23.415443
134 45 2 -0.325600 25.671524 50.540987 21.721146
135 45 2 -0.325600 23.049427 49.576995 25.109740
136 46 1 0.651200 71.830389 38.497884 23.990469
137 46 2 -0.325600 70.647557 38.220488 22.161324
138 46 2 -0.325600 73.013220 38.775280 25.819614
139 47 1 0.651200 54.842939 32.839402 93.724110
140 47 2 -0.325600 54.917714 32.929972 91.531391
141 47 2 -0.325600 54.768165 32.748832 95.916829
142 48 1 0.651200 11.917867 1.406799 33.677564
143 48 2 -0.325600 11.933337 0.000000 35.363532
144 48 2 -0.325600 11.902398 2.813597 31.991596
145 49 1 0.651200 7.499330 75.930558 45.148016
146 49 2 -0.325600 8.515909 77.440360 43.919653
147 49 2 -0.325600 6.482751 74.420756 46.376379
148 50 1 0.651200 8.659511 21.425070 30.927502
149 50 2 -0.325600 10.389589 22.001278 32.150869
150 50 2 -0.325600 6.929434 20.848862 29.704135
151 51 1 0.651200 51.464283 92.373515 66.860114
152 51 2 -0.325600 49.909386 90.825747 66.952422
153 51 2 -0.325600 53.019179 93.921283 66.767806
154 52 1 0.651200 72.256411 50.033079 69.055225
155 52 2 -0.325600 72.610777 47.929707 68.533633
156 52 2 -0.325600 71.902045 52.136452 69.576816
157 53 1 0.651200 72.417506 44.216226 94.374018
158 53 2 -0.325600 72.094395 43.445231 96.404529
159 53 2 -0.325600 72.740617 44.987221 92.343506
160 54 1 0.651200 4.946771 9.227186 1.654537
161 54 2 -0.325600 2.976508 10.158228 1.384291
162 54 2 -0.325600 6.917035 8.296144 1.924783
163 55 1 0.651200 85.456619 95.758529 63.593419
164 55 2 -0.325600 85.975379 95.121058 65.629673
165 55 2 -0.325600 84.937860 96.396000 61.557165
166 56 1 0.651200 33.863313 4.417577 77.645170
167 56 2 -0.325600 35.652897 3.196834 77.286021
168 56 2 -0.325600 32.073729 5.638319 78.004320
169 57 1 0.651200 45.684583 59.366913 89.727563
170 57 2 -0.325600 45.093602 60.995742 88.378687
171 57 2 -0.325600 46.275564 57.738083 91.076439
172 58 1 0.651200 80.721712 4.228114 42.612198
173 58 2 -0.325600 79.586060 5.766177 43.692230
174 58 2 -0.325600 81.857364 2.690052 41.532167
175 59 1 0.651200 51.940537 86.303368 69.370639
176 59 2 -0.325600 49.814952 85.983582 69.819452
177 59 2 -0.325600 54.066123 86.623154 68.921825
178 60 1 0.651200 68.572349 45.351078 72.735577
179 60 2 -0.325600 67.473472 43.576794 72.052793
180 60 2 -0.325600 69.671226 47.125363 73.418360
181 61 1 0.651200 44.706541 71.177533 78.142450
182 61 2 -0.325600 45.414866 73.248835 78.315062
183 61 2 -0.325600 43.998217 69.106231 77.969839
184 62 1 0.651200 80.505190 90.653224 73.410512
185 62 2 -0.325600 79.634586 92.580507 72.819380
186 62 2 -0.325600 81.375794 88.725940 74.001644
187 63 1 0.651200 76.170509 75.247779 23.333502
188 63 2 -0.325600 77.049557 76.665959 24.761035
189 63 2 -0.325600 75.291461 73.829599 21.905969
190 64 1 0.651200 13.499320 3.135285 12.170245
191 64 2 -0.325600 12.187028 4.857645 12.535173
192 64 2 -0.325600 14.811612 1.412924 11.805316
193 65 1 0.651200 22.639017 21.825479 76.803985
194 65 2 -0.325600 20.664465 22.504226 76.124092
195 65 2 -0.325600 24.613570 21.146732 77.483879
196 66 1 0.651200 28.033453 31.457517 93.229510
197 66 2 -0.325600 26.023110 32.264710 93.588356
198 66 2 -0.325600 30.043796 30.650324 92.870665
199 67 1 0.651200 24.195955 79.763649 51.701595
200 67 2 -0.325600 22.606720 79.285675 53.139538
201 67 2 -0.325600 25.785191 80.241624 50.263652
202 68 1 0.651200 80.588712 72.093208 18.312496
203 68 2 -0.325600 82.611964 72.009296 19.161742
204 68 2 -0.325600 78.565460 72.177119 17.463250
205 69 1 0.651200 44.042736 94.584957 94.648211
206 69 2 -0.325600 43.390186 95.942844 93.050672
207 69 2 -0.325600 44.695286 93.227069 96.245749
208 70 1 0.651200 10.577924 44.753880 88.105540
209 70 2 -0.325600 11.298030 46.809265 88.385991
210 70 2 -0.325600 9.857818 42.698496 87.825089
211 71 1 0.651200 11.716810 3.876131 80.353159
212 71 2 -0.325600 12.544467 2.971412 82.174772
213 71 2 -0.325600 10.889153 4.780851 78.531545
214 72 1 0.651200 13.925559 74.515068 45.987396
215 72 2 -0.325600 14.872307 72.807529 44.982514
216 72 2 -0.325600 12.978810 76.222607 46.992278
217 73 1 0.651200 87.003024 90.848849 85.481749
218 73 2 -0.325600 89.169599 91.206245 85.487251
219 73 2 -0.325600 84.836449 90.491453 85.476247
220 74 1 0.651200 94.260910 53.645327 94.554249
221 74 2 -0.325600 92.098043 54.001202 94.685279
222 74 2 -0.325600 96.423777 53.289452 94.423219
223 75 1 0.651200 69.052147 43.712560 17.929088
224 75 2 -0.325600 68.313162 43.653567 15.862150
225 75 2 -0.325600 69.791132 43.771553 19.996025
226 76 1 0.651200 25.440614 85.577448 80.591641
227 76 2 -0.325600 24.785709 83.553315 80.047773
228 76 2 -0.325600 26.095519 87.601582 81.135509
229 77 1 0.651200 71.829425 75.660763 88.678027
230 77 2 -0.325600 73.883348 76.288792 89.134961
231 77 2 -0.325600 69.775502 75.032733 88.221092
232 78 1 0.651200 25.206574 82.549787 59.042852
233 78 2 -0.325600 23.359856 82.333554 57.874654
234 78 2 -0.325600 27.053292 82.766020 60.211050
235 79 1 0.651200 86.340670 49.413143 14.397380
236 79 2 -0.325600 87.059566 49.396789 16.472165
237 79 2 -0.325600 85.621774 49.429497 12.322596
238 80 1 0.651200 50.751408 92.605456 0.127917
239 80 2 -0.325600 52.940617 92.492252 0.000000
240 80 2 -0.325600 48.562200 92.718661 0.255834
241 81 1 0.651200 5.123887 75.069144 55.706171
242 81 2 -0.325600 7.129928 75.922603 55.969266
243 81 2 -0.325600 3.117847 74.215686 55.443075
244 82 1 0.651200 23.930235 86.400562 89.762567
245 82 2 -0.325600 25.840502 85.555502 90.439741
246 82 2 -0.325600 22.019969 87.245622 89.085393
247 83 1 0.651200 53.565126 5.205889 2.456095
248 83 2 -0.325600 55.587065 4.687007 3.137516
249 83 2 -0.325600 51.543187 5.724772 1.774675
250 84 1 0.651200 89.445384 31.395533 79.447214
251 84 2 -0.325600 87.423410 30.584400 79.721974
252 84 2 -0.325600 91.467359 32.206665 79.172454
253 85 1 0.651200 90.131705 2.482820 8.808637
254 85 2 -0.325600 91.406687 3.871789 9.934246
255 85 2 -0.325600 88.856723 1.093851 7.683027
256 86 1 0.651200 30.461917 44.213768 73.534928
257 86 2 -0.325600 29.895541 42.594979 72.163597
258 86 2 -0.325600 31.028294 45.832557 74.906259
259 87 1 0.651200 53.247751 30.793408 78.153695
260 87 2 -0.325600 51.173748 31.010823 77.465907
261 87 2 -0.325600 55.321754 30.575993 78.841483
262 88 1 0.651200 62.671466 2.322334 88.258284
263 88 2 -0.325600 62.877987 2.125253 90.435511
264 88 2 -0.325600 62.464946 2.519416 86.081057
265 89 1 0.651200 3.425006 58.951919 6.655920
266 89 2 -0.325600 1.486906 58.131742 6.029110
267 89 2 -0.325600 5.363105 59.772095 7.282730
268 90 1 0.651200 91.922837 95.516610 30.016859
269 90 2 -0.325600 93.160763 94.637220 28.430661
270 90 2 -0.325600 90.684912 96.396000 31.603057
271 91 1 0.651200 69.615678 66.564117 52.336169
272 91 2 -0.325600 68.046812 68.002681 52.875615
273 91 2 -0.325600 71.184544 65.125553 51.796723
274 92 1 0.651200 18.732390 37.203828 89.315965
275 92 2 -0.325600 19.073769 35.038117 89.438315
276 92 2 -0.325600 18.391011 39.369538 89.193614
277 93 1 0.651200 31.226257 60.685295 47.729102
278 93 2 -0.325600 32.499055 62.473825 47.674708
279 93 2 -0.325600 29.953460 58.896766 47.783496
280 94 1 0.651200 86.463371 11.484675 17.027898
281 94 2 -0.325600 87.960422 10.825077 18.492677
282 94 2 -0.325600 84.966320 12.144273 15.563118
283 95 1 0.651200 50.339319 40.246134 67.844780
284 95 2 -0.325600 52.136569 40.992834 66.827853
285 95 2 -0.325600 48.542069 39.499434 68.861707
286 96 1 0.651200 13.938717 14.662131 3.650142
287 96 2 -0.325600 15.054761 13.261661 2.379339
288 96 2 -0.325600 12.822673 16.062600 4.920945
289 97 1 0.651200 92.121824 44.536016 39.384226
290 97 2 -0.325600 94.295688 44.650242 39.095994
291 97 2 -0.325600 89.947960 44.421791 39.672458
292 98 1 0.651200 32.304958 39.945008 84.779877
293 98 2 -0.325600 31.569310 41.838436 85.613880
294 98 2 -0.325600 33.040607 38.051580 83.945874
295 99 1 0.651200 93.085273 62.231270 11.500260
296 99 2 -0.325600 92.537847 64.271054 10.899079
297 99 2 -0.325600 93.632700 60.191487 12.101440
298 100 1 0.651200 2.012399 63.295870 91.800675
299 100 2 -0.325600 -0.000021 64.157040 91.626428
300 100 2 -0.325600 4.024819 62.434700 91.974923
301 101 1 0.651200 69.064568 34.083131 91.359050
302 101 2 -0.325600 69.475659 36.141180 92.004997
303 101 2 -0.325600 68.653477 32.025082 90.713103
304 102 1 0.651200 35.600685 11.182706 29.463304
305 102 2 -0.325600 34.962540 13.223211 28.962384
306 102 2 -0.325600 36.238830 9.142201 29.964225
307 103 1 0.651200 64.800622 80.427624 2.476906
308 103 2 -0.325600 64.684296 81.541890 0.588338
309 103 2 -0.325600 64.916948 79.313359 4.365475
310 104 1 0.651200 39.816024 43.571069 19.577602
311 104 2 -0.325600 41.949455 43.127499 19.306442
312 104 2 -0.325600 37.682593 44.014640 19.848762
313 105 1 0.651200 50.888043 56.591278 68.956580
314 105 2 -0.325600 48.806810 57.281489 69.074424
315 105 2 -0.325600 52.969276 55.901066 68.838736
316 106 1 0.651200 36.829711 94.395222 58.289504
317 106 2 -0.325600 37.184101 93.413226 60.221318
318 106 2 -0.325600 36.475322 95.377218 56.357691
319 107 1 0.651200 8.112588 14.213984 38.159290
320 107 2 -0.325600 7.665482 12.065886 38.246351
321 107 2 -0.325600 8.559695 16.362083 38.072229
322 108 1 0.651200 8.575111 79.777261 49.786533
323 108 2 -0.325600 7.695493 78.152751 50.973567
324 108 2 -0.325600 9.454730 81.401771 48.599499
325 109 1 0.651200 28.075734 81.115550 13.451469
326 109 2 -0.325600 25.941613 80.920572 12.972593
327 109 2 -0.325600 30.209855 81.310527 13.930344
328 110 1 0.651200 86.205496 12.607408 24.729282
329 110 2 -0.325600 87.544474 10.959096 24.170700
330 110 2 -0.325600 84.866518 14.255720 25.287864
331 111 1 0.651200 48.651229 76.057624 90.498384
332 111 2 -0.325600 50.217380 75.815449 92.018362
333 111 2 -0.325600 47.085078 76.299800 88.978407
334 112 1 0.651200 39.440619 19.177091 41.798860
335 112 2 -0.325600 38.750589 20.665278 40.339075
336 112 2 -0.325600 40.130648 17.688905 43.258644
337 113 1 0.651200 32.810582 46.032572 15.176291
338 113 2 -0.325600 30.832452 45.093130 15.014247
339 113 2 -0.325600 34.788713 46.972014 15.338335
340 114 1 0.651200 13.394905 72.096180 14.192162
341 114 2 -0.325600 11.846274 71.040393 13.048105
342 114 2 -0.325600 14.943535 73.151967 15.336219
343 115 1 0.651200 25.684135 43.881507 58.254430
344 115 2 -0.325600 26.911079 42.062944 58.350580
345 115 2 -0.325600 24.457190 45.700070 58.158280
346 116 1 0.651200 33.663836 58.152221 15.665856
347 116 2 -0.325600 34.151869 60.144029 16.450927
348 116 2 -0.325600 33.175804 56.160414 14.880785
349 117 1 0.651200 18.482435 44.989885 36.434636
350 117 2 -0.325600 17.698550 43.484362 37.827737
351 117 2 -0.325600 19.266321 46.495409 35.041534
352 118 1 0.651200 52.603286 87.331320 61.448264
353 118 2 -0.325600 50.762957 88.318391 62.127003
354 118 2 -0.325600 54.443616 86.344248 60.769525
355 119 1 0.651200 16.802565 41.388444 32.267625
356 119 2 -0.325600 16.977634 42.946181 30.729894
357 119 2 -0.325600 16.627495 39.830707 33.805356
358 120 1 0.651200 72.107622 59.216145 49.849283
359 120 2 -0.325600 74.175111 58.742162 50.417299
360 120 2 -0.325600 70.040133 59.690127 49.281268
361 121 1 0.651200 4.039508 93.127362 17.891179
362 121 2 -0.325600 2.088079 92.572576 18.731387
363 121 2 -0.325600 5.990937 93.682148 17.050972
364 122 1 0.651200 19.561212 72.873885 95.306892
365 122 2 -0.325600 17.547735 73.569252 94.773802
366 122 2 -0.325600 21.574690 72.178519 95.839982
367 123 1 0.651200 59.395334 75.794594 77.806014
368 123 2 -0.325600 61.539814 75.696376 77.344095
369 123 2 -0.325600 57.250854 75.892813 78.267933
370 124 1 0.651200 43.946088 5.870062 31.331997
371 124 2 -0.325600 41.767006 5.729488 31.100372
372 124 2 -0.325600 46.125170 6.010636 31.563621
373 125 1 0.651200 21.334289 23.674447 83.401261
374 125 2 -0.325600 20.651633 24.157757 81.370940
375 125 2 -0.325600 22.016945 23.191138 85.431582
376 126 1 0.651200 57.679676 18.522493 72.592479
377 126 2 -0.325600 58.869307 16.676916 72.571657
378 126 2 -0.325600 56.490045 20.368070 72.613301
379 127 1 0.651200 35.132944 17.677407 80.219571
380 127 2 -0.325600 33.233144 18.096111 81.238029
381 127 2 -0.325600 37.032744 17.258702 79.201113
382 128 1 0.651200 81.288810 25.286217 30.564630
383 128 2 -0.325600 82.593977 23.557371 30.204852
384 128 2 -0.325600 79.983642 27.015063 30.924407
385 129 1 0.651200 79.917924 53.209279 65.979346
386 129 2 -0.325600 81.542980 51.787952 66.380383
387 129 2 -0.325600 78.292867 54.630606 65.578309
388 130 1 0.651200 37.808242 58.050653 89.212982
389 130 2 -0.325600 38.312774 56.231470 88.091451
390 130 2 -0.325600 37.303711 59.869836 90.334513
391 131 1 0.651200 74.988466 49.001238 62.891275
392 131 2 -0.325600 76.105673 47.115289 62.761456
393 131 2 -0.325600 73.871258 50.887187 63.021094
394 132 1 0.651200 13.037334 66.612016 83.751747
395 132 2 -0.325600 14.060303 64.743977 83.217169
396 132 2 -0.325600 12.014366 68.480056 84.286324
397 133 1 0.651200 1.732604 57.660309 22.382117
398 133 2 -0.325600 2.302553 55.993264 23.692815
399 133 2 -0.325600 1.162656 59.327354 21.071419
400 134 1 0.651200 55.567568 57.560565 54.062824
401 134 2 -0.325600 57.212299 59.014788 54.106466
402 134 2 -0.325600 53.922837 56.106343 54.019181
403 135 1 0.651200 61.880487 71.409833 36.629361
404 135 2 -0.325600 62.581554 73.036084 37.927677
405 135 2 -0.325600 61.179421 69.783583 35.331044
406 136 1 0.651200 24.285656 7.496112 7.360987
407 136 2 -0.325600 23.370663 5.513832 7.595861
408 136 2 -0.325600 25.200649 9.478391 7.126114
409 137 1 0.651200 17.184070 18.485255 73.223673
410 137 2 -0.325600 15.775420 18.669604 74.898048
411 137 2 -0.325600 18.592720 18.300906 71.549299
412 138 1 0.651200 72.847411 42.525978 81.661774
413 138 2 -0.325600 72.674851 40.430343 81.029042
414 138 2 -0.325600 73.019971 44.621612 82.294506
415 139 1 0.651200 10.078595 76.360557 0.087524
416 139 2 -0.325600 10.968160 78.366250 -0.000110
417 139 2 -0.325600 9.189030 74.354864 0.175158
418 140 1 0.651200 9.479468 94.094927 59.311545
419 140 2 -0.325600 11.478437 94.006031 60.215994
420 140 2 -0.325600 7.480498 94.183824 58.407095
421 141 1 0.651200 68.804823 1.950389 49.692249
422 141 2 -0.325600 67.260887 3.506829 49.817021
423 141 2 -0.325600 70.348758 0.393949 49.567478
424 142 1 0.651200 85.255166 13.795150 78.070649
425 142 2 -0.325600 87.289079 13.977033 77.263229
426 142 2 -0.325600 83.221252 13.613267 78.878068
427 143 1 0.651200 39.360487 43.117556 29.926707
428 143 2 -0.325600 38.012012 41.385045 29.969515
429 143 2 -0.325600 40.708961 44.850067 29.883898
430 144 1 0.651200 28.934936 58.092886 8.058844
431 144 2 -0.325600 30.482526 57.552143 9.519794
432 144 2 -0.325600 27.387347 58.633629 6.597894
433 145 1 0.651200 13.847459 36.019132 69.681378
434 145 2 -0.325600 12.801149 37.364032 68.296355
435 145 2 -0.325600 14.893769 34.674232 71.066401
436 146 1 0.651200 32.912871 21.023300 39.646580
437 146 2 -0.325600 33.720147 19.260953 38.614955
438 146 2 -0.325600 32.105596 22.785647 40.678206
439 147 1 0.651200 56.785196 19.683252 12.185474
440 147 2 -0.325600 58.015081 21.497182 12.322763
441 147 2 -0.325600 55.555311 17.869321 12.048186
442 148 1 0.651200 65.268235 91.089203 59.650817
443 148 2 -0.325600 64.449718 90.705625 57.649640
444 148 2 -0.325600 66.086751 91.472781 61.651994
445 149 1 0.651200 85.220530 85.155368 82.464739
446 149 2 -0.325600 83.422570 83.927850 82.751700
447 149 2 -0.325600 87.018491 86.382886 82.177778
448 150 1 0.651200 28.991300 58.600218 67.181775
449 150 2 -0.325600 28.036654 57.451830 65.571910
450 150 2 -0.325600 29.945946 59.748606 68.791640
451 151 1 0.651200 78.600387 42.628110 41.481823
452 151 2 -0.325600 77.576491 43.859669 39.979588
453 151 2 -0.325600 79.624283 41.396552 42.984058
454 152 1 0.651200 67.138286 14.418322 13.656914
455 152 2 -0.325600 68.243794 14.546457 11.763968
456 152 2 -0.325600 66.032778 14.290187 15.549859
457 153 1 0.651200 43.405750 1.069395 27.454139
458 153 2 -0.325600 41.259137 1.174752 27.003850
459 153 2 -0.325600 45.552364 0.964038 27.904428
460 154 1 0.651200 86.163138 47.122950 93.933689
461 154 2 -0.325600 87.361665 48.894680 93.437385
462 154 2 -0.325600 84.964611 45.351221 94.429992
463 155 1 0.651200 76.217480 52.660690 27.075580
464 155 2 -0.325600 77.227545 54.583741 27.397225
465 155 2 -0.325600 75.207416 50.737639 26.753935
466 156 1 0.651200 2.933126 20.238822 75.292200
467 156 2 -0.325600 4.748138 21.031807 74.344193
468 156 2 -0.325600 1.118114 19.445838 76.240208
469 157 1 0.651200 91.161509 16.054724 42.977713
470 157 2 -0.325600 93.267151 16.136718 42.360170
471 157 2 -0.325600 89.055867 15.972730 43.595256
472 158 1 0.651200 25.093500 31.004075 49.127036
473 158 2 -0.325600 25.042313 28.808830 49.117603
474 158 2 -0.325600 25.144687 33.199320 49.136470
475 159 1 0.651200 50.880758 76.418192 31.354246
476 159 2 -0.325600 52.005679 75.075632 30.029899
477 159 2 -0.325600 49.755837 77.760752 32.678593
478 160 1 0.651200 61.153168 3.190446 19.367628
479 160 2 -0.325600 61.237481 1.501120 17.967315
480 160 2 -0.325600 61.068856 4.879773 20.767941
481 161 1 0.651200 11.786730 17.263175 18.008690
482 161 2 -0.325600 13.094869 18.887272 17.321021
483 161 2 -0.325600 10.478590 15.639077 18.696360
484 162 1 0.651200 68.184671 52.631025 34.472162
485 162 2 -0.325600 69.184090 50.683326 34.300579
486 162 2 -0.325600 67.185253 54.578724 34.643746
487 163 1 0.651200 41.839197 32.176635 57.658044
488 163 2 -0.325600 42.922548 30.272931 57.813198
489 163 2 -0.325600 40.755846 34.080339 57.502890
490 164 1 0.651200 21.756211 79.524611 89.787235
491 164 2 -0.325600 23.474547 80.145331 88.569105
492 164 2 -0.325600 20.037876 78.903891 91.005364
493 165 1 0.651200 57.195893 18.702394 57.867365
494 165 2 -0.325600 55.554648 18.353191 56.450968
495 165 2 -0.325600 58.837139 19.051596 59.283762
496 166 1 0.651200 43.482295 46.700460 61.970584
497 166 2 -0.325600 44.793030 45.421570 63.182287
498 166 2 -0.325600 42.171560 47.979350 60.758881
499 167 1 0.651200 73.228608 60.687081 12.576326
500 167 2 -0.325600 72.359521 58.887088 11.667193
501 167 2 -0.325600 74.097694 62.487074 13.485459
502 168 1 0.651200 90.002462 24.686186 44.870825
503 168 2 -0.325600 90.013849 24.814153 47.062926
504 168 2 -0.325600 89.991075 24.558219 42.678725
505 169 1 0.651200 96.220881 52.069961 15.331458
506 169 2 -0.325600 96.395999 53.795600 13.984865
507 169 2 -0.325600 96.045762 50.344322 16.678050
508 170 1 0.651200 55.652713 11.943857 71.301085
509 170 2 -0.325600 54.848725 12.951633 69.523502
510 170 2 -0.325600 56.456701 10.936080 73.078668
511 171 1 0.651200 54.032216 34.467503 45.549957
512 171 2 -0.325600 55.782032 35.787952 45.677898
513 171 2 -0.325600 52.282401 33.147054 45.422016
514 172 1 0.651200 17.456715 85.401410 25.789373
515 172 2 -0.325600 17.073647 87.560751 25.900352
516 172 2 -0.325600 17.839784 83.242069 25.678393
517 173 1 0.651200 38.463934 58.710866 46.123801
518 173 2 -0.325600 37.427154 57.054065 47.124753
519 173 2 -0.325600 39.500715 60.367668 45.122850
520 174 1 0.651200 42.057710 29.058538 70.705693
521 174 2 -0.325600 39.895565 29.272783 70.387828
522 174 2 -0.325600 44.219855 28.844294 71.023557
523 175 1 0.651200 88.733749 81.754337 63.417476
524 175 2 -0.325600 87.935935 80.948683 61.536991
525 175 2 -0.325600 89.531563 82.559991 65.297961
526 176 1 0.651200 26.164076 66.285811 31.019979
527 176 2 -0.325600 27.708661 67.063802 29.666910
528 176 2 -0.325600 24.619490 65.507820 32.373049
529 177 1 0.651200 5.823675 43.989600 50.152611
530 177 2 -0.325600 7.194594 45.602925 50.735342
531 177 2 -0.325600 4.452757 42.376275 49.569881
532 178 1 0.651200 29.786030 88.736898 57.598299
533 178 2 -0.325600 31.832834 89.521662 57.469645
534 178 2 -0.325600 27.739227 87.952134 57.726953
535 179 1 0.651200 80.581677 38.950569 79.814146
536 179 2 -0.325600 79.466276 39.704606 81.548827
537 179 2 -0.325600 81.697077 38.196531 78.079465
538 180 1 0.651200 31.266277 86.357259 69.380393
539 180 2 -0.325600 30.072256 84.709988 68.554184
540 180 2 -0.325600 32.460297 88.004531 70.206602
541 181 1 0.651200 83.558675 85.659559 25.983660
542 181 2 -0.325600 83.830090 85.919661 23.820216
543 181 2 -0.325600 83.287261 85.399457 28.147104
544 182 1 0.651200 52.214610 25.151507 57.231777
545 182 2 -0.325600 52.463329 24.853936 55.070434
546 182 2 -0.325600 51.965890 25.449077 59.393119
547 183 1 0.651200 47.784038 13.147690 29.880178
548 183 2 -0.325600 47.652567 15.339531 29.899049
549 183 2 -0.325600 47.915508 10.955848 29.861307
550 184 1 0.651200 92.848241 91.048972 90.078423
551 184 2 -0.325600 93.122994 88.871022 90.131828
552 184 2 -0.325600 92.573488 93.226923 90.025018
553 185 1 0.651200 12.837588 92.754188 79.222429
554 185 2 -0.325600 14.964382 92.236759 79.046858
555 185 2 -0.325600 10.710794 93.271618 79.398001
556 186 1 0.651200 17.044429 56.888121 29.107147
557 186 2 -0.325600 17.280674 58.900347 28.260421
558 186 2 -0.325600 16.808185 54.875895 29.953873
559 187 1 0.651200 52.321066 93.653531 27.212716
560 187 2 -0.325600 53.467330 94.593857 28.832492
561 187 2 -0.325600 51.174802 92.713205 25.592939
562 188 1 0.651200 68.334942 40.467495 76.507019
563 188 2 -0.325600 68.245139 42.461572 77.422116
564 188 2 -0.325600 68.424745 38.473418 75.591922
565 189 1 0.651200 14.909514 57.323446 70.023602
566 189 2 -0.325600 15.120079 59.509173 70.031983
567 189 2 -0.325600 14.698950 55.137719 70.015221
568 190 1 0.651200 18.539258 4.438761 46.174148
569 190 2 -0.325600 20.623400 5.129414 46.140078
570 190 2 -0.325600 16.455117 3.748107 46.208218
571 191 1 0.651200 16.864292 31.168236 93.209914
572 191 2 -0.325600 16.369529 32.637603 94.764900
573 191 2 -0.325600 17.359055 29.698869 91.654929
574 192 1 0.651200 73.832183 29.482429 50.335163
575 192 2 -0.325600 75.022030 27.689218 49.898740
576 192 2 -0.325600 72.642335 31.275641 50.771586
577 193 1 0.651200 51.754839 53.300017 43.220047
578 193 2 -0.325600 52.631098 53.779306 41.264476
579 193 2 -0.325600 50.878579 52.820727 45.175619
580 194 1 0.651200 54.670219 62.163309 48.549622
581 194 2 -0.325600 53.861915 61.355597 50.424736
582 194 2 -0.325600 55.478523 62.971022 46.674507
583 195 1 0.651200 25.269426 28.215951 77.064510
584 195 2 -0.325600 27.036890 29.206304 77.911317
585 195 2 -0.325600 23.501962 27.225598 76.217702
586 196 1 0.651200 19.094826 23.642753 12.004931
587 196 2 -0.325600 16.931765 23.553162 11.637579
588 196 2 -0.325600 21.257888 23.732345 12.372284
589 197 1 0.651200 70.413749 14.770795 32.741073
590 197 2 -0.325600 69.030558 16.161509 31.753901
591 197 2 -0.325600 71.796940 13.380081 33.728245
592 198 1 0.651200 86.446481 18.145431 9.758100
593 198 2 -0.325600 85.522512 16.160099 9.921040
594 198 2 -0.325600 87.370450 20.130763 9.595159
595 199 1 0.651200 3.586565 74.548362 8.610138
596 199 2 -0.325600 3.649733 72.380550 8.266029
597 199 2 -0.325600 3.523396 76.716174 8.954246
598 200 1 0.651200 22.169590 73.858166 39.512873
599 200 2 -0.325600 21.403158 72.775717 37.762817
600 200 2 -0.325600 22.936022 74.940614 41.262929
601 201 1 0.651200 66.477547 62.362086 86.195158
602 201 2 -0.325600 67.325913 60.448833 86.859647
603 201 2 -0.325600 65.629181 64.275339 85.530669
604 202 1 0.651200 55.315564 23.339699 96.396589
605 202 2 -0.325600 57.137474 22.113954 96.396736
606 202 2 -0.325600 53.493653 24.565445 96.396441
607 203 1 0.651200 48.720851 86.348879 45.235618
608 203 2 -0.325600 50.457493 86.736836 46.522232
609 203 2 -0.325600 46.984210 85.960922 43.949004