LAMMPS Description

648  atoms
 432  bonds
 216  angles

 2  atom types
 1  bond types
 1  angle types


0.0 45.905 xlo xhi
0.0 45.905 ylo yhi
0.0 45.905 zlo zhi

Masses

  1 12.0107
  2 15.9994

Bond Coeffs

 1    2.196    0.45106005 -0.67297933 0.5857145

Angle Coeffs

  1    0.0861  180.000000

Atoms

1 1 1 0.651200 4.471769 18.285491 27.999897
2 1 2 -0.325600 6.022124 19.363596 29.120564
3 1 2 -0.325600 2.921413 17.207386 26.879229
4 2 1 0.651200 10.215827 43.738673 41.632403
5 2 2 -0.325600 8.910460 41.974042 41.569932
6 2 2 -0.325600 11.521194 45.503304 41.694873
7 3 1 0.651200 45.420510 30.370645 7.924683
8 3 2 -0.325600 45.855041 28.218237 7.913144
9 3 2 -0.325600 44.985979 32.523053 7.936221
10 4 1 0.651200 38.800216 15.128322 39.267104
11 4 2 -0.325600 37.714399 13.490851 40.247666
12 4 2 -0.325600 39.886033 16.765792 38.286541
13 5 1 0.651200 4.420584 41.401417 10.814935
14 5 2 -0.325600 4.634658 43.250483 9.650060
15 5 2 -0.325600 4.206510 39.552350 11.979810
16 6 1 0.651200 10.383648 20.189868 42.304746
17 6 2 -0.325600 10.572434 18.180368 41.439832
18 6 2 -0.325600 10.194862 22.199369 43.169660
19 7 1 0.651200 1.319803 7.715253 3.545310
20 7 2 -0.325600 2.573884 7.598007 5.344016
21 7 2 -0.325600 0.065721 7.832500 1.746604
22 8 1 0.651200 23.706177 43.872734 40.457523
23 8 2 -0.325600 23.369964 42.718957 38.619707
24 8 2 -0.325600 24.042390 45.026512 42.295339
25 9 1 0.651200 44.718669 19.933119 40.169001
26 9 2 -0.325600 45.540587 18.733808 38.523427
27 9 2 -0.325600 43.896751 21.132430 41.814575
28 10 1 0.651200 3.950761 8.856696 19.085010
29 10 2 -0.325600 4.703559 8.673747 21.139672
30 10 2 -0.325600 3.197964 9.039645 17.030348
31 11 1 0.651200 22.704088 40.489800 17.011663
32 11 2 -0.325600 23.386879 42.566404 16.803522
33 11 2 -0.325600 22.021296 38.413196 17.219804
34 12 1 0.651200 28.246667 31.777745 29.850532
35 12 2 -0.325600 29.419239 33.490402 29.133811
36 12 2 -0.325600 27.074094 30.065088 30.567254
37 13 1 0.651200 34.654577 44.935744 6.304562
38 13 2 -0.325600 36.635595 44.008065 6.496367
39 13 2 -0.325600 32.673559 45.863424 6.112758
40 14 1 0.651200 3.820719 4.262740 24.304021
41 14 2 -0.325600 6.015163 4.301644 24.372662
42 14 2 -0.325600 1.626275 4.223837 24.235379
43 15 1 0.651200 14.667385 6.266303 22.406006
44 15 2 -0.325600 13.547864 5.202978 20.844653
45 15 2 -0.325600 15.786906 7.329628 23.967359
46 16 1 0.651200 33.850544 35.969277 31.266242
47 16 2 -0.325600 35.226591 34.301498 30.883076
48 16 2 -0.325600 32.474496 37.637056 31.649409
49 17 1 0.651200 33.609982 41.939566 21.617331
50 17 2 -0.325600 31.414289 41.960479 21.634865
51 17 2 -0.325600 35.805674 41.918653 21.599797
52 18 1 0.651200 29.128239 33.208931 41.794415
53 18 2 -0.325600 29.816253 34.711623 43.240224
54 18 2 -0.325600 28.440225 31.706239 40.348606
55 19 1 0.651200 26.134797 3.208587 12.429647
56 19 2 -0.325600 24.394749 3.171357 11.090746
57 19 2 -0.325600 27.874845 3.245817 13.768549
58 20 1 0.651200 2.893165 28.216402 11.579280
59 20 2 -0.325600 3.516738 26.117386 11.743892
60 20 2 -0.325600 2.269592 30.315418 11.414667
61 21 1 0.651200 7.863265 34.782424 9.133738
62 21 2 -0.325600 5.737756 34.766865 9.684901
63 21 2 -0.325600 9.988774 34.797984 8.582575
64 22 1 0.651200 17.273803 26.314378 15.144945
65 22 2 -0.325600 18.053414 27.181326 17.005702
66 22 2 -0.325600 16.494192 25.447431 13.284188
67 23 1 0.651200 10.419647 0.444812 21.839980
68 23 2 -0.325600 10.304606 0.895322 19.693910
69 23 2 -0.325600 10.534687 -0.005699 23.986050
70 24 1 0.651200 14.437499 30.071797 7.452863
71 24 2 -0.325600 16.413528 29.828681 8.379152
72 24 2 -0.325600 12.461469 30.314912 6.526574
73 25 1 0.651200 20.571491 40.732697 33.679626
74 25 2 -0.325600 21.720327 39.240186 32.550735
75 25 2 -0.325600 19.422656 42.225209 34.808517
76 26 1 0.651200 18.150951 3.442897 18.402698
77 26 2 -0.325600 19.257676 4.319585 20.084479
78 26 2 -0.325600 17.044226 2.566210 16.720916
79 27 1 0.651200 33.067889 26.691667 38.750276
80 27 2 -0.325600 31.160813 25.944736 37.958467
81 27 2 -0.325600 34.974966 27.438598 39.542086
82 28 1 0.651200 19.196124 11.812772 22.940432
83 28 2 -0.325600 19.455950 11.286174 25.056324
84 28 2 -0.325600 18.936298 12.339369 20.824541
85 29 1 0.651200 23.285817 33.625054 35.943258
86 29 2 -0.325600 25.443479 33.629650 35.535479
87 29 2 -0.325600 21.128155 33.620457 36.351037
88 30 1 0.651200 32.232122 26.533356 26.108238
89 30 2 -0.325600 33.591001 25.609939 24.651338
90 30 2 -0.325600 30.873243 27.456774 27.565138
91 31 1 0.651200 43.141694 30.874414 18.570493
92 31 2 -0.325600 45.107474 30.142969 19.220499
93 31 2 -0.325600 41.175914 31.605858 17.920488
94 32 1 0.651200 45.905513 27.652724 13.601696
95 32 2 -0.325600 45.905424 29.848002 13.551082
96 32 2 -0.325600 45.905601 25.457445 13.652310
97 33 1 0.651200 15.931958 43.456268 8.451981
98 33 2 -0.325600 13.984896 44.373944 8.886296
99 33 2 -0.325600 17.879020 42.538591 8.017666
100 34 1 0.651200 1.492553 5.225028 35.340975
101 34 2 -0.325600 2.314652 3.188870 35.335996
102 34 2 -0.325600 0.670454 7.261185 35.345954
103 35 1 0.651200 6.785809 41.344590 25.897816
104 35 2 -0.325600 5.108131 39.930478 25.984396
105 35 2 -0.325600 8.463487 42.758701 25.811237
106 36 1 0.651200 32.892839 32.957314 6.421591
107 36 2 -0.325600 32.411213 31.458032 7.951952
108 36 2 -0.325600 33.374466 34.456595 4.891231
109 37 1 0.651200 10.761031 27.704731 20.394627
110 37 2 -0.325600 12.540444 26.418125 20.406749
111 37 2 -0.325600 8.981619 28.991337 20.382504
112 38 1 0.651200 35.116659 10.302399 24.743130
113 38 2 -0.325600 34.510868 8.191901 24.718152
114 38 2 -0.325600 35.722450 12.412897 24.768109
115 39 1 0.651200 21.130686 6.931517 7.169864
116 39 2 -0.325600 20.231297 5.119785 8.024578
117 39 2 -0.325600 22.030075 8.743249 6.315150
118 40 1 0.651200 28.941814 25.915655 42.989890
119 40 2 -0.325600 27.017225 26.846155 42.487956
120 40 2 -0.325600 30.866403 24.985155 43.491823
121 41 1 0.651200 11.511926 22.302328 33.264887
122 41 2 -0.325600 9.488092 23.023177 33.719071
123 41 2 -0.325600 13.535760 21.581480 32.810704
124 42 1 0.651200 33.340522 9.742909 40.006831
125 42 2 -0.325600 31.543774 10.749058 40.769177
126 42 2 -0.325600 35.137269 8.736759 39.244486
127 43 1 0.651200 25.126480 45.949021 32.233683
128 43 2 -0.325600 24.302763 45.951994 34.269191
129 43 2 -0.325600 25.950197 45.946049 30.198175
130 44 1 0.651200 5.283418 35.263091 45.890800
131 44 2 -0.325600 3.748850 33.692570 45.871494
132 44 2 -0.325600 6.817986 36.833613 45.910106
133 45 1 0.651200 22.280290 23.061601 41.371330
134 45 2 -0.325600 23.558610 22.149257 39.836619
135 45 2 -0.325600 21.001970 23.973945 42.906040
136 46 1 0.651200 31.245400 15.983099 24.802716
137 46 2 -0.325600 30.535908 14.066624 23.999253
138 46 2 -0.325600 31.954891 17.899575 25.606179
139 47 1 0.651200 29.028820 7.331628 8.527147
140 47 2 -0.325600 30.095960 7.017294 10.420349
141 47 2 -0.325600 27.961679 7.645962 6.633944
142 48 1 0.651200 25.167785 10.598302 30.131750
143 48 2 -0.325600 23.848074 10.217695 31.845025
144 48 2 -0.325600 26.487495 10.978910 28.418475
145 49 1 0.651200 3.138583 22.339030 7.735574
146 49 2 -0.325600 4.560882 23.205552 6.304486
147 49 2 -0.325600 1.716284 21.472507 9.166663
148 50 1 0.651200 12.598256 11.769145 21.534008
149 50 2 -0.325600 13.805695 13.285766 22.565396
150 50 2 -0.325600 11.390817 10.252524 20.502619
151 51 1 0.651200 5.615457 15.259034 21.181731
152 51 2 -0.325600 7.052606 13.636747 20.828746
153 51 2 -0.325600 4.178308 16.881321 21.534715
154 52 1 0.651200 20.841897 31.993831 43.999214
155 52 2 -0.325600 23.033222 32.001123 43.858326
156 52 2 -0.325600 18.650571 31.986539 44.140102
157 53 1 0.651200 45.673925 7.716410 24.522484
158 53 2 -0.325600 45.348783 6.100673 25.973513
159 53 2 -0.325600 45.999068 9.332148 23.071455
160 54 1 0.651200 15.774423 20.282976 38.248877
161 54 2 -0.325600 14.478957 18.704688 37.441048
162 54 2 -0.325600 17.069888 21.861264 39.056705
163 55 1 0.651200 23.713178 16.443772 39.752027
164 55 2 -0.325600 24.715768 17.040311 37.891714
165 55 2 -0.325600 22.710588 15.847233 41.612340
166 56 1 0.651200 39.194884 16.108517 20.933610
167 56 2 -0.325600 40.377857 17.494451 22.158997
168 56 2 -0.325600 38.011911 14.722583 19.708224
169 57 1 0.651200 3.463901 23.367159 0.744105
170 57 2 -0.325600 3.208704 25.545316 0.855093
171 57 2 -0.325600 3.719098 21.189003 0.633117
172 58 1 0.651200 26.452756 37.188094 24.080078
173 58 2 -0.325600 25.389849 39.098364 23.872940
174 58 2 -0.325600 27.515664 35.277824 24.287215
175 59 1 0.651200 26.164998 20.747616 45.959069
176 59 2 -0.325600 25.458740 22.826388 45.917632
177 59 2 -0.325600 26.871256 18.668845 46.000506
178 60 1 0.651200 15.833379 18.869685 18.907685
179 60 2 -0.325600 16.928729 17.550452 17.535955
180 60 2 -0.325600 14.738029 20.188918 20.279415
181 61 1 0.651200 5.496616 37.418380 4.281248
182 61 2 -0.325600 3.549369 36.412005 4.149917
183 61 2 -0.325600 7.443864 38.424755 4.412580
184 62 1 0.651200 27.202181 2.061200 32.902565
185 62 2 -0.325600 28.736868 3.585376 32.523841
186 62 2 -0.325600 25.667494 0.537023 33.281288
187 63 1 0.651200 9.571000 21.018763 2.179118
188 63 2 -0.325600 9.147285 18.865195 2.245610
189 63 2 -0.325600 9.994715 23.172331 2.112626
190 64 1 0.651200 19.321544 28.251235 39.093571
191 64 2 -0.325600 17.185595 27.826670 38.812007
192 64 2 -0.325600 21.457492 28.675800 39.375135
193 65 1 0.651200 0.650639 22.138271 25.994824
194 65 2 -0.325600 0.797188 21.476388 23.906225
195 65 2 -0.325600 0.504090 22.800154 28.083423
196 66 1 0.651200 41.977104 14.233994 44.271873
197 66 2 -0.325600 42.933499 16.200773 44.074655
198 66 2 -0.325600 41.020708 12.267214 44.469091
199 67 1 0.651200 20.073490 18.003060 11.251068
200 67 2 -0.325600 19.732676 19.544942 12.776931
201 67 2 -0.325600 20.414304 16.461179 9.725206
202 68 1 0.651200 27.459931 21.118164 25.317239
203 68 2 -0.325600 27.634854 22.301528 27.158668
204 68 2 -0.325600 27.285009 19.934799 23.475810
205 69 1 0.651200 28.851760 39.495848 17.299581
206 69 2 -0.325600 28.383801 38.197248 19.007347
207 69 2 -0.325600 29.319720 40.794447 15.591816
208 70 1 0.651200 24.872235 5.026808 41.719295
209 70 2 -0.325600 26.287386 6.682133 42.000463
210 70 2 -0.325600 23.457084 3.371483 41.438126
211 71 1 0.651200 14.797412 13.285511 12.908644
212 71 2 -0.325600 12.698247 12.667613 12.725559
213 71 2 -0.325600 16.896577 13.903409 13.091729
214 72 1 0.651200 9.828629 27.874511 11.060955
215 72 2 -0.325600 11.249576 26.200623 11.089581
216 72 2 -0.325600 8.407682 29.548399 11.032330
217 73 1 0.651200 8.537830 32.973023 42.094193
218 73 2 -0.325600 7.696816 34.002736 40.346568
219 73 2 -0.325600 9.378845 31.943309 43.841818
220 74 1 0.651200 7.049741 32.449271 33.938285
221 74 2 -0.325600 5.780922 30.917659 33.007655
222 74 2 -0.325600 8.318560 33.980884 34.868915
223 75 1 0.651200 18.016845 38.521921 11.768672
224 75 2 -0.325600 19.319269 40.023424 12.701942
225 75 2 -0.325600 16.714421 37.020419 10.835403
226 76 1 0.651200 21.037436 35.417904 0.515454
227 76 2 -0.325600 23.155120 35.527572 1.085718
228 76 2 -0.325600 18.919753 35.308236 -0.054810
229 77 1 0.651200 30.824606 8.146458 30.266826
230 77 2 -0.325600 30.271838 6.988419 28.484917
231 77 2 -0.325600 31.377374 9.304498 32.048736
232 78 1 0.651200 39.265518 37.150289 25.338039
233 78 2 -0.325600 38.991570 36.580503 27.440920
234 78 2 -0.325600 39.539467 37.720076 23.235159
235 79 1 0.651200 10.474544 43.112207 14.450923
236 79 2 -0.325600 8.746965 43.770478 13.266033
237 79 2 -0.325600 12.202122 42.453937 15.635812
238 80 1 0.651200 44.483943 19.895617 10.620835
239 80 2 -0.325600 43.062693 21.223536 9.601773
240 80 2 -0.325600 45.905193 18.567697 11.639897
241 81 1 0.651200 26.098023 21.358626 9.684581
242 81 2 -0.325600 24.791652 19.728520 9.007856
243 81 2 -0.325600 27.404395 22.988732 10.361306
244 82 1 0.651200 22.561450 36.794404 8.677461
245 82 2 -0.325600 22.594711 34.974973 9.906434
246 82 2 -0.325600 22.528190 38.613835 7.448487
247 83 1 0.651200 8.681947 21.112418 22.935592
248 83 2 -0.325600 9.344081 19.749072 21.346670
249 83 2 -0.325600 8.019813 22.475764 24.524515
250 84 1 0.651200 34.714354 0.667106 35.172869
251 84 2 -0.325600 36.804503 1.334296 35.083732
252 84 2 -0.325600 32.624205 -0.000084 35.262006
253 85 1 0.651200 31.246952 40.797812 3.654984
254 85 2 -0.325600 31.866734 41.770053 1.786180
255 85 2 -0.325600 30.627171 39.825570 5.523787
256 86 1 0.651200 38.950883 37.510864 43.058230
257 86 2 -0.325600 37.596669 39.223091 43.295278
258 86 2 -0.325600 40.305098 35.798637 42.821182
259 87 1 0.651200 32.392655 0.291015 8.509247
260 87 2 -0.325600 33.116198 -0.017689 6.459126
261 87 2 -0.325600 31.669113 0.599718 10.559368
262 88 1 0.651200 31.136254 4.663761 44.637357
263 88 2 -0.325600 29.757056 2.962531 44.796851
264 88 2 -0.325600 32.515452 6.364992 44.477864
265 89 1 0.651200 24.351620 1.070894 5.537196
266 89 2 -0.325600 22.600866 0.247081 6.575465
267 89 2 -0.325600 26.102373 1.894707 4.498927
268 90 1 0.651200 38.542281 24.639812 8.542131
269 90 2 -0.325600 37.696804 22.691708 9.100585
270 90 2 -0.325600 39.387757 26.587916 7.983677
271 91 1 0.651200 42.515932 13.262753 11.108957
272 91 2 -0.325600 43.705092 12.337139 9.511787
273 91 2 -0.325600 41.326773 14.188367 12.706126
274 92 1 0.651200 32.603817 15.877334 30.679438
275 92 2 -0.325600 33.633211 14.299340 29.551567
276 92 2 -0.325600 31.574424 17.455328 31.807309
277 93 1 0.651200 18.075274 -0.017142 24.014766
278 93 2 -0.325600 15.988094 -0.008760 24.696983
279 93 2 -0.325600 20.162454 -0.025525 23.332549
280 94 1 0.651200 6.134217 12.861944 3.000169
281 94 2 -0.325600 4.830988 14.187152 4.169454
282 94 2 -0.325600 7.437445 11.536735 1.830884
283 95 1 0.651200 8.948738 43.644650 3.553899
284 95 2 -0.325600 8.914022 42.855775 1.504928
285 95 2 -0.325600 8.983453 44.433524 5.602870
286 96 1 0.651200 43.539897 38.018419 19.375763
287 96 2 -0.325600 44.575239 36.093520 19.587041
288 96 2 -0.325600 42.504554 39.943319 19.164485
289 97 1 0.651200 18.400850 25.497543 32.932852
290 97 2 -0.325600 19.742428 23.995260 33.807566
291 97 2 -0.325600 17.059272 26.999827 32.058139
292 98 1 0.651200 31.510592 38.415341 37.064669
293 98 2 -0.325600 29.618413 37.338455 36.778684
294 98 2 -0.325600 33.402770 39.492228 37.350654
295 99 1 0.651200 32.989362 42.227611 27.102465
296 99 2 -0.325600 35.058631 41.497338 27.183909
297 99 2 -0.325600 30.920092 42.957885 27.021021
298 100 1 0.651200 28.397620 6.258012 20.406245
299 100 2 -0.325600 27.408027 4.505764 19.527526
300 100 2 -0.325600 29.387213 8.010259 21.284963
301 101 1 0.651200 13.263664 31.180250 15.388421
302 101 2 -0.325600 12.477739 31.915401 17.302496
303 101 2 -0.325600 14.049589 30.445099 13.474345
304 102 1 0.651200 41.337323 40.503137 38.108212
305 102 2 -0.325600 39.999900 42.135914 38.714142
306 102 2 -0.325600 42.674745 38.870361 37.502282
307 103 1 0.651200 7.229023 44.034356 36.089838
308 103 2 -0.325600 8.636959 45.717257 36.003991
309 103 2 -0.325600 5.821086 42.351455 36.175684
310 104 1 0.651200 2.915595 41.960969 31.522154
311 104 2 -0.325600 2.389110 44.072010 31.819018
312 104 2 -0.325600 3.442079 39.849927 31.225290
313 105 1 0.651200 29.984794 7.212616 1.142176
314 105 2 -0.325600 30.329387 5.078481 1.527580
315 105 2 -0.325600 29.640200 9.346750 0.756771
316 106 1 0.651200 30.108102 2.990771 39.131629
317 106 2 -0.325600 28.342548 1.686924 39.063727
318 106 2 -0.325600 31.873656 4.294619 39.199531
319 107 1 0.651200 4.181979 3.423900 15.612152
320 107 2 -0.325600 2.396002 2.672728 16.645515
321 107 2 -0.325600 5.967956 4.175072 14.578789
322 108 1 0.651200 16.193142 25.599131 2.476632
323 108 2 -0.325600 14.328735 26.753976 2.586757
324 108 2 -0.325600 18.057550 24.444286 2.366508
325 109 1 0.651200 20.586918 13.154069 35.943758
326 109 2 -0.325600 22.244556 12.020407 36.831933
327 109 2 -0.325600 18.929280 14.287731 35.055582
328 110 1 0.651200 33.142578 29.434472 45.900319
329 110 2 -0.325600 31.040212 30.068072 45.920698
330 110 2 -0.325600 35.244945 28.800873 45.879940
331 111 1 0.651200 39.969608 45.420626 20.776371
332 111 2 -0.325600 39.970572 45.597617 18.587654
333 111 2 -0.325600 39.968644 45.243636 22.965089
334 112 1 0.651200 10.904335 13.677005 32.686717
335 112 2 -0.325600 11.834492 12.389302 31.170656
336 112 2 -0.325600 9.974178 14.964708 34.202777
337 113 1 0.651200 17.789170 38.341521 39.115381
338 113 2 -0.325600 18.702504 40.145016 39.972724
339 113 2 -0.325600 16.875837 36.538026 38.258038
340 114 1 0.651200 12.510637 19.144439 27.937027
341 114 2 -0.325600 11.237678 17.558871 28.766098
342 114 2 -0.325600 13.783596 20.730007 27.107956
343 115 1 0.651200 38.792342 22.300591 38.369832
344 115 2 -0.325600 40.701484 22.377190 37.287650
345 115 2 -0.325600 36.883200 22.223991 39.452014
346 116 1 0.651200 25.218371 7.403321 36.370543
347 116 2 -0.325600 23.434456 6.127394 36.477623
348 116 2 -0.325600 27.002287 8.679247 36.263462
349 117 1 0.651200 19.697309 21.479492 26.703708
350 117 2 -0.325600 20.669908 21.046800 28.624292
351 117 2 -0.325600 18.724711 21.912183 24.783125
352 118 1 0.651200 4.100876 25.316765 36.379592
353 118 2 -0.325600 6.081720 26.088990 36.928899
354 118 2 -0.325600 2.120033 24.544540 35.830285
355 119 1 0.651200 8.839931 35.241593 14.608146
356 119 2 -0.325600 10.478181 36.532755 13.921962
357 119 2 -0.325600 7.201682 33.950431 15.294329
358 120 1 0.651200 41.622714 22.758504 16.064738
359 120 2 -0.325600 40.668209 24.048855 14.566164
360 120 2 -0.325600 42.577219 21.468152 17.563311
361 121 1 0.651200 15.640140 45.863535 2.716814
362 121 2 -0.325600 13.669187 45.813529 1.750038
363 121 2 -0.325600 17.611092 45.913541 3.683590
364 122 1 0.651200 7.242137 6.335339 30.945321
365 122 2 -0.325600 7.668419 8.462310 31.286039
366 122 2 -0.325600 6.815855 4.208368 30.604602
367 123 1 0.651200 42.837646 3.258927 15.220160
368 123 2 -0.325600 43.572549 1.191021 15.146050
369 123 2 -0.325600 42.102742 5.326832 15.294270
370 124 1 0.651200 23.833130 27.844216 10.266092
371 124 2 -0.325600 25.466396 28.232358 8.850607
372 124 2 -0.325600 22.199863 27.456075 11.681577
373 125 1 0.651200 17.217054 8.465397 14.404624
374 125 2 -0.325600 18.679528 8.629549 12.774889
375 125 2 -0.325600 15.754580 8.301244 16.034358
376 126 1 0.651200 20.416829 30.848299 3.920796
377 126 2 -0.325600 19.540645 30.154011 2.030802
378 126 2 -0.325600 21.293013 31.542587 5.810790
379 127 1 0.651200 9.177300 32.937500 1.530351
380 127 2 -0.325600 7.869752 31.787668 0.192437
381 127 2 -0.325600 10.484848 34.087332 2.868265
382 128 1 0.651200 25.306286 26.505035 22.417057
383 128 2 -0.325600 26.128115 28.523342 22.686955
384 128 2 -0.325600 24.484458 24.486728 22.147158
385 129 1 0.651200 43.417448 12.616455 28.989790
386 129 2 -0.325600 41.874413 14.173334 28.859477
387 129 2 -0.325600 44.960483 11.059576 29.120103
388 130 1 0.651200 17.758778 2.373983 40.913669
389 130 2 -0.325600 17.486795 3.650924 42.679244
390 130 2 -0.325600 18.030762 1.097042 39.148093
391 131 1 0.651200 17.091261 44.835504 16.457072
392 131 2 -0.325600 17.263610 45.905009 14.547029
393 131 2 -0.325600 16.918911 43.765998 18.367115
394 132 1 0.651200 37.089989 11.177934 8.963587
395 132 2 -0.325600 35.726544 12.606279 8.003035
396 132 2 -0.325600 38.453434 9.749590 9.924139
397 133 1 0.651200 38.282058 11.034755 2.453902
398 133 2 -0.325600 40.120375 11.996763 1.734917
399 133 2 -0.325600 36.443741 10.072746 3.172888
400 134 1 0.651200 27.353210 8.697398 15.426395
401 134 2 -0.325600 25.317281 7.930574 15.128425
402 134 2 -0.325600 29.389138 9.464222 15.724364
403 135 1 0.651200 34.759809 35.939924 19.436501
404 135 2 -0.325600 36.621480 36.500452 18.415815
405 135 2 -0.325600 32.898138 35.379396 20.457187
406 136 1 0.651200 4.519458 10.975194 36.627085
407 136 2 -0.325600 4.618688 12.081656 34.732961
408 136 2 -0.325600 4.420228 9.868733 38.521209
409 137 1 0.651200 7.066298 43.791661 19.602700
410 137 2 -0.325600 6.498043 45.905866 19.432306
411 137 2 -0.325600 7.634553 41.677456 19.773094
412 138 1 0.651200 30.784370 19.659668 4.591911
413 138 2 -0.325600 30.341581 19.976947 2.464688
414 138 2 -0.325600 31.227160 19.342388 6.719135
415 139 1 0.651200 27.022484 33.952933 13.182539
416 139 2 -0.325600 25.947833 32.038756 13.129031
417 139 2 -0.325600 28.097134 35.867110 13.236047
418 140 1 0.651200 37.063745 30.841010 25.963332
419 140 2 -0.325600 37.125977 32.160859 24.209498
420 140 2 -0.325600 37.001512 29.521161 27.717167
421 141 1 0.651200 21.277907 29.118986 27.463989
422 141 2 -0.325600 21.388885 27.292846 28.678365
423 141 2 -0.325600 21.166929 30.945125 26.249613
424 142 1 0.651200 7.481111 12.404309 26.480636
425 142 2 -0.325600 9.379124 13.296117 25.829457
426 142 2 -0.325600 5.583097 11.512501 27.131815
427 143 1 0.651200 8.883153 0.715054 37.360110
428 143 2 -0.325600 10.367793 0.619576 38.975207
429 143 2 -0.325600 7.398514 0.810533 35.745013
430 144 1 0.651200 15.203167 36.499279 4.761897
431 144 2 -0.325600 15.768838 34.416635 4.356407
432 144 2 -0.325600 14.637495 38.581922 5.167386
433 145 1 0.651200 30.449841 26.250868 3.300143
434 145 2 -0.325600 30.621182 25.833159 1.151196
435 145 2 -0.325600 30.278500 26.668578 5.449089
436 146 1 0.651200 40.402593 43.129771 1.287829
437 146 2 -0.325600 42.577160 42.963926 1.543883
438 146 2 -0.325600 38.228026 43.295617 1.031775
439 147 1 0.651200 43.909260 10.908286 36.062381
440 147 2 -0.325600 44.122500 12.775825 37.197562
441 147 2 -0.325600 43.696019 9.040747 34.927199
442 148 1 0.651200 37.578793 22.106165 27.484074
443 148 2 -0.325600 36.533937 20.180901 27.637188
444 148 2 -0.325600 38.623649 24.031429 27.330960
445 149 1 0.651200 25.550105 40.553826 0.970884
446 149 2 -0.325600 23.939005 41.686818 1.941706
447 149 2 -0.325600 27.161206 39.420834 0.000063
448 150 1 0.651200 9.973266 22.858858 15.756964
449 150 2 -0.325600 8.677835 24.629501 15.849108
450 150 2 -0.325600 11.268698 21.088215 15.664820
451 151 1 0.651200 22.748737 13.894501 16.129723
452 151 2 -0.325600 23.957154 15.721481 16.283624
453 151 2 -0.325600 21.540320 12.067522 15.975822
454 152 1 0.651200 31.620391 31.887158 35.862538
455 152 2 -0.325600 33.242927 33.209529 36.526257
456 152 2 -0.325600 29.997855 30.564787 35.198820
457 153 1 0.651200 42.217137 4.237501 39.443620
458 153 2 -0.325600 41.687402 2.156761 38.983497
459 153 2 -0.325600 42.746872 6.318240 39.903743
460 154 1 0.651200 38.749703 41.670333 32.564128
461 154 2 -0.325600 37.606314 39.948404 31.822890
462 154 2 -0.325600 39.893092 43.392261 33.305367
463 155 1 0.651200 18.295815 34.002954 15.152962
464 155 2 -0.325600 19.782967 32.678312 14.228025
465 155 2 -0.325600 16.808662 35.327597 16.077900
466 156 1 0.651200 37.029314 13.475826 34.109736
467 156 2 -0.325600 35.505054 12.122200 34.925907
468 156 2 -0.325600 38.553574 14.829453 33.293564
469 157 1 0.651200 12.349070 37.563610 19.653148
470 157 2 -0.325600 14.219065 38.710564 19.556056
471 157 2 -0.325600 10.479075 36.416657 19.750239
472 158 1 0.651200 23.864704 15.245106 3.268564
473 158 2 -0.325600 24.335048 17.205501 4.138874
474 158 2 -0.325600 23.394361 13.284711 2.398255
475 159 1 0.651200 43.397930 2.710904 21.750970
476 159 2 -0.325600 44.019489 4.384509 20.472486
477 159 2 -0.325600 42.776372 1.037300 23.029455
478 160 1 0.651200 16.680915 40.594566 -0.008457
479 160 2 -0.325600 14.494757 40.389010 -0.024912
480 160 2 -0.325600 18.867073 40.800122 0.007997
481 161 1 0.651200 40.198292 1.919562 8.897298
482 161 2 -0.325600 40.632773 0.684973 7.134112
483 161 2 -0.325600 39.763811 3.154152 10.660484
484 162 1 0.651200 25.755188 24.746060 35.460518
485 162 2 -0.325600 26.025595 22.652246 34.856671
486 162 2 -0.325600 25.484781 26.839874 36.064365
487 163 1 0.651200 6.185734 13.816535 9.882373
488 163 2 -0.325600 5.884774 11.671419 10.242524
489 163 2 -0.325600 6.486693 15.961652 9.522222
490 164 1 0.651200 33.179617 45.760544 32.933365
491 164 2 -0.325600 31.415991 45.911579 31.633896
492 164 2 -0.325600 34.943244 45.609508 34.232835
493 165 1 0.651200 29.767258 17.658828 41.435463
494 165 2 -0.325600 30.500558 19.680508 41.879188
495 165 2 -0.325600 29.033959 15.637148 40.991739
496 166 1 0.651200 17.120621 4.754278 1.263846
497 166 2 -0.325600 18.227818 6.600695 1.695898
498 166 2 -0.325600 16.013424 2.907861 0.831793
499 167 1 0.651200 38.355609 27.395838 21.752614
500 167 2 -0.325600 36.541855 27.991985 20.667849
501 167 2 -0.325600 40.169363 26.799692 22.837380
502 168 1 0.651200 32.857759 18.702210 37.007491
503 168 2 -0.325600 33.797047 16.748864 37.359609
504 168 2 -0.325600 31.918470 20.655555 36.655373
505 169 1 0.651200 15.761285 27.948702 24.915688
506 169 2 -0.325600 14.435797 28.906688 26.381005
507 169 2 -0.325600 17.086773 26.990717 23.450371
508 170 1 0.651200 36.226531 1.694492 28.654812
509 170 2 -0.325600 37.601986 -0.000137 28.413638
510 170 2 -0.325600 34.851077 3.389122 28.895986
511 171 1 0.651200 24.918925 1.081271 25.862473
512 171 2 -0.325600 24.476689 0.431841 27.912956
513 171 2 -0.325600 25.361161 1.730701 23.811991
514 172 1 0.651200 19.662347 9.911043 41.987813
515 172 2 -0.325600 21.675458 10.536993 42.602125
516 172 2 -0.325600 17.649235 9.285094 41.373500
517 173 1 0.651200 40.667436 10.130764 21.994555
518 173 2 -0.325600 40.306901 8.626918 20.435623
519 173 2 -0.325600 41.027971 11.634611 23.553487
520 174 1 0.651200 14.720364 10.025769 36.469992
521 174 2 -0.325600 15.939710 8.321761 35.813210
522 174 2 -0.325600 13.501019 11.729778 37.126774
523 175 1 0.651200 3.656684 29.258088 41.600161
524 175 2 -0.325600 3.126730 30.118342 39.650566
525 175 2 -0.325600 4.186639 28.397833 43.549756
526 176 1 0.651200 2.247587 40.590151 17.363318
527 176 2 -0.325600 3.298131 38.751112 17.943061
528 176 2 -0.325600 1.197043 42.429190 16.783576
529 177 1 0.651200 36.506980 4.065460 21.680911
530 177 2 -0.325600 34.802574 4.026234 20.296979
531 177 2 -0.325600 38.211387 4.104686 23.064844
532 178 1 0.651200 19.432281 45.419196 29.549763
533 178 2 -0.325600 20.982045 44.929320 28.073259
534 178 2 -0.325600 17.882517 45.909072 31.026266
535 179 1 0.651200 44.360676 12.749363 18.168646
536 179 2 -0.325600 44.456518 11.054347 16.775971
537 179 2 -0.325600 44.264835 14.444379 19.561322
538 180 1 0.651200 41.744411 21.252038 31.604284
539 180 2 -0.325600 42.752660 23.134079 32.117281
540 180 2 -0.325600 40.736162 19.369998 31.091286
541 181 1 0.651200 1.861781 38.496143 38.659690
542 181 2 -0.325600 0.172284 39.352866 37.549089
543 181 2 -0.325600 3.551279 37.639421 39.770292
544 182 1 0.651200 30.420655 12.841339 9.441254
545 182 2 -0.325600 29.473162 13.107779 7.478329
546 182 2 -0.325600 31.368148 12.574899 11.404180
547 183 1 0.651200 25.147628 37.968204 40.969446
548 183 2 -0.325600 23.433432 36.611540 40.762556
549 183 2 -0.325600 26.861825 39.324868 41.176337
550 184 1 0.651200 38.381344 8.566348 30.527483
551 184 2 -0.325600 36.515932 9.650083 30.118133
552 184 2 -0.325600 40.246756 7.482613 30.936832
553 185 1 0.651200 2.002613 45.926324 25.653731
554 185 2 -0.325600 -0.033132 45.864466 26.474539
555 185 2 -0.325600 4.038358 45.988183 24.832923
556 186 1 0.651200 28.276559 41.679293 33.679431
557 186 2 -0.325600 28.795817 42.908069 35.423648
558 186 2 -0.325600 27.757301 40.450518 31.935215
559 187 1 0.651200 5.206564 17.348739 38.640206
560 187 2 -0.325600 4.280520 16.230417 40.287509
561 187 2 -0.325600 6.132608 18.467061 36.992903
562 188 1 0.651200 41.403862 17.647933 2.636458
563 188 2 -0.325600 43.377018 16.952827 3.303758
564 188 2 -0.325600 39.430705 18.343040 1.969157
565 189 1 0.651200 44.810109 1.603169 32.309343
566 189 2 -0.325600 45.111320 0.192876 30.653397
567 189 2 -0.325600 44.508898 3.013462 33.965288
568 190 1 0.651200 37.538904 23.338112 44.951839
569 190 2 -0.325600 39.525168 24.260349 45.113218
570 190 2 -0.325600 35.552640 22.415875 44.790460
571 191 1 0.651200 35.514085 4.928567 6.642403
572 191 2 -0.325600 35.947473 4.514874 4.529859
573 191 2 -0.325600 35.080696 5.342259 8.754948
574 192 1 0.651200 33.748347 21.013964 21.284895
575 192 2 -0.325600 31.794265 21.547227 20.436953
576 192 2 -0.325600 35.702429 20.480701 22.132836
577 193 1 0.651200 25.706140 16.532759 30.333140
578 193 2 -0.325600 26.511251 16.477443 28.290949
579 193 2 -0.325600 24.901029 16.588074 32.375332
580 194 1 0.651200 34.716267 1.681544 15.056827
581 194 2 -0.325600 36.174870 0.040141 15.047668
582 194 2 -0.325600 33.257665 3.322947 15.065986
583 195 1 0.651200 35.226159 24.544769 33.168297
584 195 2 -0.325600 35.181775 26.681383 33.672997
585 195 2 -0.325600 35.270542 22.408155 32.663598
586 196 1 0.651200 21.401404 5.497166 29.707617
587 196 2 -0.325600 20.882634 6.994865 28.187886
588 196 2 -0.325600 21.920174 3.999466 31.227348
589 197 1 0.651200 16.011935 8.452390 30.285606
590 197 2 -0.325600 16.817711 10.453930 29.877716
591 197 2 -0.325600 15.206160 6.450850 30.693496
592 198 1 0.651200 6.759052 10.582090 44.158305
593 198 2 -0.325600 4.952729 11.730728 43.668777
594 198 2 -0.325600 8.565375 9.433451 44.647833
595 199 1 0.651200 17.191475 16.260612 27.696529
596 199 2 -0.325600 17.332017 15.929811 29.862777
597 199 2 -0.325600 17.050933 16.591413 25.530282
598 200 1 0.651200 9.618415 6.368586 38.279113
599 200 2 -0.325600 10.435759 6.631932 40.300105
600 200 2 -0.325600 8.801072 6.105241 36.258121
601 201 1 0.651200 38.671284 32.420652 9.400953
602 201 2 -0.325600 38.387340 32.290053 7.227447
603 201 2 -0.325600 38.955228 32.551251 11.574459
604 202 1 0.651200 12.167940 28.816288 36.659411
605 202 2 -0.325600 11.442035 27.099846 37.820746
606 202 2 -0.325600 12.893845 30.532730 35.498076
607 203 1 0.651200 23.576578 8.344930 22.033360
608 203 2 -0.325600 24.348144 8.168493 24.081619
609 203 2 -0.325600 22.805011 8.521367 19.985101
610 204 1 0.651200 10.161621 14.780368 45.743419
611 204 2 -0.325600 12.188973 13.959257 45.549946
612 204 2 -0.325600 8.134269 15.601478 45.936891
613 205 1 0.651200 10.835159 5.972890 26.445449
614 205 2 -0.325600 11.364792 4.129612 27.514853