650
# CELL(abcABC):   56.69178    56.69178    56.69178    90.00000    90.00000    90.00000  Step:        1000  Bead:       0 x_centroid{angstrom}  cell{atomic_unit}
       C  3.03111e+00  8.77509e+00  1.76096e+01
       O  2.96938e+00  7.61470e+00  1.76535e+01
       O  3.09042e+00  9.93507e+00  1.75594e+01
       C  5.84331e+00  2.93627e+01  2.72791e+01
       O  6.17398e+00  2.88578e+01  2.82729e+01
       O  5.50958e+00  2.98519e+01  2.62779e+01
       C  2.99177e+01  1.96006e+01  6.45344e+00
       O  2.97500e+01  2.06654e+01  6.88902e+00
       O  3.00826e+01  1.85334e+01  6.02071e+00
       C  2.33250e+01  1.11542e+01  2.57347e+01
       O  2.32288e+01  1.22860e+01  2.54861e+01
       O  2.34228e+01  1.00214e+01  2.59768e+01
       C  3.59267e+00  2.47050e+01  7.52447e+00
       O  2.71124e+00  2.53179e+01  7.96935e+00
       O  4.46979e+00  2.40806e+01  7.08452e+00
       C  5.70161e+00  1.35478e+01  2.76492e+01
       O  4.68961e+00  1.33707e+01  2.81936e+01
       O  6.71105e+00  1.37408e+01  2.71058e+01
       C  1.45720e+00  9.56430e+00  3.85216e+00
       O  4.51901e-01  9.05248e+00  4.13389e+00
       O  2.46308e+00  1.00728e+01  3.56752e+00
       C  1.62014e+01  2.89142e+01  2.59795e+01
       O  1.68490e+01  2.85445e+01  2.50876e+01
       O  1.55496e+01  2.92772e+01  2.68709e+01
       C  2.71303e+01  1.21762e+01  2.67175e+01
       O  2.60263e+01  1.18353e+01  2.68556e+01
       O  2.82378e+01  1.25070e+01  2.65955e+01
       C  4.15924e+00  5.74418e+00  1.26338e+01
       O  4.15098e+00  6.82797e+00  1.22130e+01
       O  4.17382e+00  4.66140e+00  1.30561e+01
       C  1.37076e+01  2.65924e+01  1.03960e+01
       O  1.29695e+01  2.62634e+01  9.55985e+00
       O  1.44441e+01  2.69184e+01  1.12338e+01
       C  2.14430e+01  2.02500e+01  2.20251e+01
       O  2.21687e+01  2.11566e+01  2.20763e+01
       O  2.07238e+01  1.93380e+01  2.19628e+01
       C  2.24302e+01  3.04221e+01  3.70966e+00
       O  2.14359e+01  2.98490e+01  3.52310e+00
       O  2.34243e+01  3.09947e+01  3.89992e+00
       C  4.06276e+00  4.92131e+00  1.61405e+01
       O  4.77381e+00  5.80741e+00  1.58906e+01
       O  3.35844e+00  4.03113e+00  1.63900e+01
       C  8.25784e+00  5.72954e+00  1.43113e+01
       O  8.74201e+00  4.95336e+00  1.35938e+01
       O  7.77443e+00  6.50136e+00  1.50348e+01
       C  2.16389e+01  2.54341e+01  2.21751e+01
       O  2.24368e+01  2.62247e+01  2.18746e+01
       O  2.08429e+01  2.46426e+01  2.24807e+01
       C  2.07232e+01  2.67662e+01  1.49002e+01
       O  2.11605e+01  2.78378e+01  1.47860e+01
       O  2.02882e+01  2.56941e+01  1.50140e+01
       C  1.81706e+01  2.24425e+01  2.78250e+01
       O  1.74781e+01  2.33385e+01  2.80895e+01
       O  1.88529e+01  2.15417e+01  2.75534e+01
       C  1.85936e+01  1.41381e+00  8.93749e+00
       O  1.95513e+01  7.71996e-01  9.09160e+00
       O  1.76380e+01  2.05576e+00  8.77343e+00
       C  2.91344e+01  1.08219e+01  9.66128e+00
       O  3.02024e+01  1.03673e+01  9.73471e+00
       O  2.80661e+01  1.12721e+01  9.57487e+00
       C  3.98985e+00  1.88844e+01  6.49554e+00
       O  4.94293e+00  1.83005e+01  6.17494e+00
       O  3.03346e+00  1.94636e+01  6.81634e+00
       C  6.42498e+00  2.21498e+01  5.75800e+00
       O  5.66141e+00  2.12880e+01  5.91836e+00
       O  7.18997e+00  2.30151e+01  5.62029e+00
       C  8.86099e+00  1.74972e+01  1.11298e+01
       O  9.04011e+00  1.72512e+01  1.22520e+01
       O  8.67571e+00  1.77449e+01  1.00091e+01
       C  6.43364e+00  2.42474e+00  1.41198e+01
       O  6.44410e+00  1.50290e+00  1.34122e+01
       O  6.42075e+00  3.35325e+00  1.48206e+01
       C  9.11896e+00  1.94780e+01  4.86297e+00
       O  9.91840e+00  1.87506e+01  5.29188e+00
       O  8.32097e+00  2.02075e+01  4.43413e+00
       C  1.53460e+01  2.63250e+01  2.25918e+01
       O  1.56668e+01  2.74087e+01  2.23164e+01
       O  1.50168e+01  2.52411e+01  2.28532e+01
       C  1.04672e+01  3.00105e+00  1.51222e+01
       O  9.54637e+00  2.30773e+00  1.49683e+01
       O  1.13898e+01  3.69079e+00  1.52794e+01
       C  2.15659e+01  1.67434e+01  2.53970e+01
       O  2.10329e+01  1.58444e+01  2.59069e+01
       O  2.21084e+01  1.76340e+01  2.48827e+01
       C  2.10157e+01  3.02966e+01  1.17016e+01
       O  2.14667e+01  3.13573e+01  1.15452e+01
       O  2.05740e+01  2.92343e+01  1.18672e+01
       C  1.37759e+01  9.00728e+00  1.67666e+01
       O  1.29211e+01  8.31849e+00  1.71514e+01
       O  1.46290e+01  9.69827e+00  1.63822e+01
       C  1.51192e+01  1.97129e+01  2.46066e+01
       O  1.57850e+01  1.88137e+01  2.49243e+01
       O  1.44574e+01  2.06136e+01  2.42872e+01
       C  2.85365e+01  6.26891e+00  9.59045e+00
       O  2.83235e+01  5.18733e+00  9.22129e+00
       O  2.87487e+01  7.34822e+00  9.96977e+00
       C  2.11467e+01  1.82381e+01  1.91349e+01
       O  2.13649e+01  1.93631e+01  1.89376e+01
       O  2.09223e+01  1.71151e+01  1.93358e+01
       C  2.93466e+01  2.02720e+01  1.00049e+01
       O  3.00565e+01  1.94063e+01  9.69097e+00
       O  2.86314e+01  2.11319e+01  1.03209e+01
       C  3.13923e+01  1.64154e+01  7.76507e+00
       O  3.03651e+01  1.64113e+01  8.30923e+00
       O  3.24177e+01  1.64151e+01  7.21737e+00
       C  9.50915e+00  2.55646e+01  4.76711e+00
       O  1.05099e+01  2.49769e+01  4.68368e+00
       O  8.50406e+00  2.61433e+01  4.84696e+00
       C  2.89813e+00  2.88710e+00  2.43987e+01
       O  1.75494e+00  3.09806e+00  2.44203e+01
       O  4.04253e+00  2.67613e+00  2.43876e+01
       C  4.40486e+00  3.14049e+01  1.75544e+01
       O  4.97867e+00  3.12350e+01  1.65574e+01
       O  3.83443e+00  3.15661e+01  1.85546e+01
       C  2.21565e+01  1.96013e+01  3.21326e+00
       O  2.14996e+01  1.87694e+01  2.73582e+00
       O  2.28085e+01  2.04375e+01  3.68944e+00
       C  6.93645e+00  2.12086e+01  1.13775e+01
       O  7.95116e+00  2.07557e+01  1.10338e+01
       O  5.92293e+00  2.16596e+01  1.17251e+01
       C  2.31949e+01  5.68360e+00  1.64071e+01
       O  2.28276e+01  5.40198e+00  1.53419e+01
       O  2.35544e+01  5.97186e+00  1.74752e+01
       C  1.61357e+01  3.76381e+00  6.80051e+00
       O  1.53333e+01  4.11108e+00  7.56624e+00
       O  1.69315e+01  3.42198e+00  6.02461e+00
       C  1.85263e+01  1.86061e+01  2.71039e+01
       O  1.74654e+01  1.86816e+01  2.75746e+01
       O  1.95897e+01  1.85306e+01  2.66411e+01
       C  8.33894e+00  1.59058e+01  2.31472e+01
       O  8.30098e+00  1.47487e+01  2.32505e+01
       O  8.38254e+00  1.70635e+01  2.30447e+01
       C  1.98584e+01  9.42021e+00  2.40776e+01
       O  2.07197e+01  1.01459e+01  2.37860e+01
       O  1.90003e+01  8.69403e+00  2.43742e+01
       C  1.81637e+01  2.95145e+01  2.26472e+01
       O  1.75352e+01  3.04849e+01  2.27725e+01
       O  1.87858e+01  2.85418e+01  2.25130e+01
       C  1.57684e+01  1.60864e+01  2.62440e+01
       O  1.69211e+01  1.60190e+01  2.61067e+01
       O  1.46165e+01  1.61569e+01  2.63855e+01
       C  2.14003e+01  8.31542e+00  1.73558e+01
       O  2.07496e+01  7.49188e+00  1.68568e+01
       O  2.20583e+01  9.12649e+00  1.78664e+01
       C  1.99234e+01  4.30018e+00  5.62213e+00
       O  1.99113e+01  3.63165e+00  6.57395e+00
       O  1.99268e+01  4.95656e+00  4.66225e+00
       C  1.57433e+01  6.05036e+00  1.83100e+01
       O  1.58014e+01  5.41670e+00  1.92833e+01
       O  1.56836e+01  6.68005e+00  1.73340e+01
       C  2.64343e+00  1.43400e+01  4.44677e+00
       O  2.70365e+00  1.51031e+01  3.57139e+00
       O  2.57327e+00  1.35789e+01  5.32330e+00
       C  8.39761e+00  1.01447e+01  1.51697e+01
       O  8.79286e+00  9.31898e+00  1.44522e+01
       O  8.00756e+00  1.09580e+01  1.59026e+01
       C  4.79291e+00  8.97695e+00  1.42561e+01
       O  5.78754e+00  9.31912e+00  1.37586e+01
       O  3.80646e+00  8.61821e+00  1.47551e+01
       C  1.53302e+01  2.05756e+01  2.82112e+01
       O  1.50848e+01  2.00569e+01  2.92218e+01
       O  1.55867e+01  2.10994e+01  2.72052e+01
       C  2.72098e+01  6.01378e+00  1.57083e+01
       O  2.61434e+01  5.86630e+00  1.52677e+01
       O  2.82731e+01  6.17180e+00  1.61513e+01
       C  9.58722e+00  1.49880e+01  2.63514e+01
       O  1.02366e+01  1.40411e+01  2.65303e+01
       O  8.93802e+00  1.59372e+01  2.61748e+01
       C  1.70347e+01  1.25112e+01  2.47381e+01
       O  1.78980e+01  1.17746e+01  2.44835e+01
       O  1.61633e+01  1.32344e+01  2.50011e+01
       C  2.46139e+01  8.57881e+00  1.47105e+01
       O  2.35869e+01  8.46568e+00  1.52445e+01
       O  2.56395e+01  8.69595e+00  1.41752e+01
       C  4.24714e+00  1.59121e+01  2.88367e-01
       O  5.02738e+00  1.52418e+01  8.29840e-01
       O  3.46811e+00  1.65784e+01 -2.59256e-01
       C  1.75749e+01  2.63589e+01  1.61465e+01
       O  1.82053e+01  2.71645e+01  1.66999e+01
       O  1.69382e+01  2.55540e+01  1.56014e+01
       C  1.80080e+01  1.53464e+01  2.87808e+01
       O  1.71026e+01  1.46273e+01  2.89042e+01
       O  1.89083e+01  1.60734e+01  2.86603e+01
       C  1.09394e+01  1.16837e+01  1.26529e+01
       O  1.00119e+01  1.18205e+01  1.33403e+01
       O  1.18622e+01  1.15354e+01  1.19615e+01
       C  5.68098e+00  2.55861e+01  4.24409e+00
       O  6.02158e+00  2.49228e+01  3.35218e+00
       O  5.32937e+00  2.62482e+01  5.13268e+00
       C  1.92300e+01  1.70392e+00  1.96516e+01
       O  1.96091e+01  1.37575e+00  2.07013e+01
       O  1.88551e+01  2.03805e+00  1.86030e+01
       C  5.30543e+00  1.24630e+01  1.88697e+00
       O  4.64753e+00  1.26706e+01  2.82281e+00
       O  5.96188e+00  1.22553e+01  9.49902e-01
       C  1.24462e+01  1.80491e+01  2.71273e+01
       O  1.32062e+01  1.89253e+01  2.70459e+01
       O  1.16831e+01  1.71755e+01  2.72061e+01
       C  2.01895e+00  1.18197e+01  1.50294e+01
       O  2.07658e+00  1.10438e+01  1.41658e+01
       O  1.94878e+00  1.25980e+01  1.58906e+01
       C  2.50461e+01  9.40065e+00  2.83931e+01
       O  2.43116e+01  1.00253e+01  2.90424e+01
       O  2.57828e+01  8.77748e+00  2.77442e+01
       C  1.19338e+01  9.12915e+00  1.01192e+01
       O  1.22456e+01  8.47839e+00  1.10316e+01
       O  1.16222e+01  9.77334e+00  9.20368e+00
       C  1.83778e+01  1.09771e+01  1.76220e+01
       O  1.89917e+01  1.00684e+01  1.80108e+01
       O  1.77513e+01  1.18811e+01  1.72464e+01
       C  7.98302e+00  1.72876e+00  1.85664e+00
       O  9.07010e+00  1.35965e+00  2.04136e+00
       O  6.89506e+00  2.10076e+00  1.68119e+00
       C  1.77939e+01  2.83961e+01  1.25848e+01
       O  1.74232e+01  2.89641e+01  1.16404e+01
       O  1.81544e+01  2.78212e+01  1.35296e+01
       C  1.63128e+01  2.49016e+00  2.45929e+01
       O  1.58363e+01  3.08954e+00  2.37174e+01
       O  1.67875e+01  1.87866e+00  2.54604e+01
       C  8.36354e+00  8.25145e+00  1.16543e+01
       O  9.14591e+00  9.05677e+00  1.13501e+01
       O  7.58778e+00  7.44334e+00  1.19674e+01
       C  7.07649e+00  1.96583e+01  8.24461e+00
       O  7.99522e+00  1.99803e+01  7.60813e+00
       O  6.15280e+00  1.93474e+01  8.87910e+00
       C  5.41411e+00  2.02413e+01  2.87039e+01
       O  5.13285e+00  1.98758e+01  2.97710e+01
       O  5.70089e+00  2.06072e+01  2.76381e+01
       C  5.31417e+00  2.00322e+01  2.46645e+01
       O  5.92442e+00  2.09297e+01  2.42482e+01
       O  4.69452e+00  1.91350e+01  2.50691e+01
       C  1.28628e+01  2.46918e+01  6.96888e+00
       O  1.33299e+01  2.55860e+01  6.39057e+00
       O  1.23947e+01  2.37982e+01  7.54777e+00
       C  1.46441e+01  2.43367e+01 -1.06841e+00
       O  1.42305e+01  2.32576e+01 -9.36884e-01
       O  1.50650e+01  2.54127e+01 -1.19780e+00
       C  1.98543e+01  5.15211e+00  1.84510e+01
       O  1.89755e+01  5.77854e+00  1.88845e+01
       O  2.07336e+01  4.52185e+00  1.80237e+01
       C  2.40624e+01  2.50168e+01  1.68834e+01
       O  2.32657e+01  2.57624e+01  1.64808e+01
       O  2.48574e+01  2.42636e+01  1.72734e+01
       C  6.45299e+00  2.75776e+01  8.54017e+00
       O  7.54856e+00  2.79651e+01  8.49968e+00
       O  5.36077e+00  2.71797e+01  8.57680e+00
       C  3.01057e+01  1.22364e+01  6.20362e+00
       O  3.02747e+01  1.25055e+01  7.32263e+00
       O  2.99313e+01  1.19677e+01  5.08592e+00
       C  2.57278e+01  3.07048e+01  2.27203e+01
       O  2.62276e+01  3.13141e+01  2.18654e+01
       O  2.52289e+01  3.00973e+01  2.35769e+01
       C  1.61250e+01  1.55683e+01  4.01583e+00
       O  1.56289e+01  1.47874e+01  4.71901e+00
       O  1.66219e+01  1.63504e+01  3.31300e+00
       C  1.28604e+01  2.37948e+01  3.31854e+00
       O  1.25787e+01  2.43161e+01  2.31804e+00
       O  1.31345e+01  2.32718e+01  4.32038e+00
       C  5.36244e+00  1.18705e+01  1.67442e+01
       O  5.78201e+00  1.20852e+01  1.78069e+01
       O  4.94144e+00  1.16507e+01  1.56823e+01
       C  1.94569e+01  2.56585e+01 -2.13898e+00
       O  2.01546e+01  2.48223e+01 -1.73140e+00
       O  1.87579e+01  2.64913e+01 -2.55133e+00
       C  2.23914e+01  2.62097e+01  2.59009e+01
       O  2.20455e+01  2.69969e+01  2.66845e+01
       O  2.27253e+01  2.54146e+01  2.51209e+01
       C  2.19619e+01  1.63258e+00  7.44831e+00
       O  2.22828e+01  2.17182e+00  8.42714e+00
       O  2.16360e+01  1.08928e+00  6.47355e+00
       C  2.13670e+01  2.38605e+00  2.76770e+01
       O  2.22245e+01  2.39218e+00  2.84620e+01
       O  2.05076e+01  2.37528e+00  2.68940e+01
       C  1.87438e+01  1.13097e+00  5.10348e+00
       O  1.90386e+01  1.76780e+00  4.17645e+00
       O  1.84456e+01  5.02098e-01  6.03457e+00
       C  2.87734e+01  1.57974e+01  5.41806e+00
       O  2.77740e+01  1.63856e+01  5.33855e+00
       O  2.97717e+01  1.52046e+01  5.48994e+00
       C  2.93966e+01  8.49298e+00  6.95222e+00
       O  2.97969e+01  7.40170e+00  6.93522e+00
       O  2.89933e+01  9.58342e+00  6.98313e+00
       C  2.15209e+01  1.08839e+01  2.01620e+01
       O  2.18535e+01  9.97016e+00  2.07997e+01
       O  2.11799e+01  1.17925e+01  1.95210e+01
       C  4.59965e+00  8.39051e+00  2.02716e+00
       O  3.71980e+00  7.63761e+00  2.12949e+00
       O  5.47602e+00  9.14879e+00  1.92917e+00
       C  6.25173e+00  2.81652e+01  1.33028e+00
       O  5.38855e+00  2.73885e+01  1.27664e+00
       O  7.11341e+00  2.89425e+01  1.39868e+00
       C  2.66442e+01  2.35453e+01  1.41769e+01
       O  2.76577e+01  2.29785e+01  1.41380e+01
       O  2.56268e+01  2.41070e+01  1.42145e+01
       C  1.20986e+01  1.68052e+01  2.40099e+01
       O  1.29638e+01  1.75811e+01  2.40384e+01
       O  1.12357e+01  1.60268e+01  2.39832e+01
       C  1.88388e+01  2.62129e+01  2.43425e+01
       O  1.99000e+01  2.66310e+01  2.45671e+01
       O  1.77828e+01  2.57774e+01  2.41262e+01
       C  2.22602e+01  2.83935e+01  1.76778e+01
       O  2.13132e+01  2.77321e+01  1.78056e+01
       O  2.32090e+01  2.90544e+01  1.75511e+01
       C  1.86030e+01  2.92269e+00  1.25035e+01
       O  1.84702e+01  1.93777e+00  1.19004e+01
       O  1.87303e+01  3.90911e+00  1.31049e+01
       C  1.02499e+01  2.18550e+01  9.13113e+00
       O  1.08185e+01  2.08419e+01  9.10066e+00
       O  9.67954e+00  2.28679e+01  9.15594e+00
       C  2.53402e+01  2.71630e+01  2.40652e+01
       O  2.50574e+01  2.73736e+01  2.51733e+01
       O  2.56203e+01  2.69399e+01  2.29592e+01
       C  3.04715e+00  2.89264e+01  2.44761e+01
       O  2.50544e+00  2.99470e+01  2.43464e+01
       O  3.58019e+00  2.79022e+01  2.46098e+01
       C  2.88422e+00  3.07809e+01  2.13406e+01
       O  2.88213e+00  2.96481e+01  2.10775e+01
       O  2.88885e+00  3.19127e+01  2.16100e+01
       C  2.06880e+01  2.62202e+00  1.55643e+00
       O  2.13688e+01  2.90780e+00  2.45546e+00
       O  2.00078e+01  2.34125e+00  6.56352e-01
       C  1.97617e+01  2.30240e+00  2.38814e+01
       O  1.92042e+01  3.32170e+00  2.39250e+01
       O  2.03135e+01  1.28056e+00  2.38285e+01
       C -2.98373e-01  4.82142e+00  1.27899e+01
       O  2.82890e-01  5.29307e+00  1.18989e+01
       O -8.91882e-01  4.35861e+00  1.36760e+01
       C  1.08506e+01  1.77826e+01  2.01153e+00
       O  1.17636e+01  1.70846e+01  1.83608e+00
       O  9.92913e+00  1.84678e+01  2.19317e+00
       C  1.56735e+01  8.05696e+00  2.33312e+01
       O  1.61984e+01  8.92416e+00  2.27608e+01
       O  1.51347e+01  7.19874e+00  2.39011e+01
       C  2.12518e+01  1.79141e+01  2.90844e+01
       O  2.19819e+01  1.71537e+01  2.85944e+01
       O  2.05215e+01  1.86756e+01  2.95729e+01
       C  2.37955e+01  2.90352e+01  1.42372e+01
       O  2.31972e+01  2.99851e+01  1.39334e+01
       O  2.43938e+01  2.80875e+01  1.45449e+01
       C  6.16965e+00  7.86263e+00  2.07421e+01
       O  5.18433e+00  8.18837e+00  2.02165e+01
       O  7.16101e+00  7.53183e+00  2.12520e+01
       C  1.33676e+01  2.66012e+01  2.61189e+01
       O  1.26716e+01  2.61566e+01  2.69368e+01
       O  1.40607e+01  2.70403e+01  2.52942e+01
       C  8.46651e+00  1.07562e+01  1.89694e+01
       O  9.24045e+00  1.16031e+01  1.87811e+01
       O  7.69866e+00  9.90410e+00  1.91622e+01
       C  2.48605e+01  1.46132e+01  2.44256e+01
       O  2.38634e+01  1.50126e+01  2.39783e+01
       O  2.58557e+01  1.42147e+01  2.48756e+01
       C  1.76184e+01  4.91027e+00  2.15894e+01
       O  1.79207e+01  3.87301e+00  2.11593e+01
       O  1.73262e+01  5.95154e+00  2.20165e+01
       C  1.18151e+01  1.23757e+01  1.74220e+01
       O  1.21777e+01  1.13017e+01  1.76807e+01
       O  1.14546e+01  1.34521e+01  1.71692e+01
       C  5.97328e+00  1.66016e+01  2.61850e+01
       O  5.89391e+00  1.68945e+01  2.73083e+01
       O  6.04392e+00  1.62932e+01  2.50664e+01
       C  6.94366e+00  2.36558e+01  8.65920e+00
       O  7.23875e+00  2.47769e+01  8.57815e+00
       O  6.65074e+00  2.25338e+01  8.74563e+00
       C  2.85217e+01  1.42675e+01  9.05461e+00
       O  2.91143e+01  1.40997e+01  1.00406e+01
       O  2.79289e+01  1.44325e+01  8.06745e+00
       C  1.00629e+01  2.83647e+01  1.29229e+00
       O  1.00611e+01  2.78298e+01  2.32490e+00
       O  1.00696e+01  2.88941e+01  2.56706e-01
       C  5.50581e+00  3.88514e+00  2.12358e+01
       O  5.89256e+00  2.78852e+00  2.12500e+01
       O  5.11203e+00  4.97945e+00  2.12244e+01
       C  2.79806e+01  2.41792e+00  1.03665e+01
       O  2.89501e+01  2.58376e+00  1.09863e+01
       O  2.70117e+01  2.24735e+00  9.74709e+00
       C  1.35422e+01  1.86409e+01  4.37515e+00
       O  1.27173e+01  1.92974e+01  3.88329e+00
       O  1.43531e+01  1.79715e+01  4.87139e+00
       C  1.09560e+01  5.29692e+00  1.14141e+01
       O  1.02495e+01  5.96558e+00  1.07760e+01
       O  1.16623e+01  4.62373e+00  1.20460e+01
       C  1.30124e+01  2.07258e+01  1.19986e+00
       O  1.37266e+01  2.14447e+01  1.77049e+00
       O  1.22943e+01  2.00134e+01  6.25569e-01
       C  6.73338e+00  2.11771e+01  2.07219e+00
       O  7.59781e+00  2.08328e+01  1.37419e+00
       O  5.87407e+00  2.15206e+01  2.77576e+00
       C  5.75361e+00  2.99968e+00 -1.05350e+00
       O  5.37059e+00  1.92451e+00 -1.27532e+00
       O  6.11943e+00  4.08105e+00 -8.30276e-01
       C  6.25790e-01  1.16862e+01  2.48281e+01
       O -4.69584e-02  1.21177e+01  2.39845e+01
       O  1.30754e+00  1.12440e+01  2.56602e+01
       C  1.55954e+01  1.41067e+01  1.74171e+01
       O  1.64110e+01  1.48507e+01  1.77807e+01
       O  1.47747e+01  1.33638e+01  1.70602e+01
       C  2.60403e+01  9.05418e+00  1.84811e+01
       O  2.57396e+01  8.46102e+00  1.75267e+01
       O  2.63498e+01  9.64920e+00  1.94305e+01
       C  1.29400e+01  6.90524e-01  2.60987e+01
       O  1.24741e+01 -3.73446e-01  2.61552e+01
       O  1.34013e+01  1.75589e+00  2.60257e+01
       C  1.00238e+01  2.60135e+01  8.79803e+00
       O  9.86578e+00  2.60328e+01  9.94962e+00
       O  1.01850e+01  2.59903e+01  7.64657e+00
       C  2.61784e+01  6.63038e+00  6.57141e+00
       O  2.56096e+01  6.02755e+00  5.75499e+00
       O  2.67517e+01  7.22447e+00  7.39023e+00
       C  2.38262e+01  7.50432e+00  3.69106e+00
       O  2.46526e+01  7.92234e+00  2.98899e+00
       O  2.29980e+01  7.09335e+00  4.39597e+00
       C  2.11007e+01  4.44343e+00  9.86491e+00
       O  2.20914e+01  5.03610e+00  9.73062e+00
       O  2.01033e+01  3.86082e+00  9.99837e+00
       C  2.26634e+01  2.40589e+01  1.39699e+01
       O  2.26308e+01  2.49346e+01  1.32058e+01
       O  2.26923e+01  2.31841e+01  1.47354e+01
       C  4.33972e+00  6.65628e+00  2.38532e+01
       O  4.93186e+00  7.56174e+00  2.34275e+01
       O  3.74147e+00  5.75411e+00  2.42775e+01
       C  5.80048e+00  2.87494e+01  1.22979e+01
       O  5.80917e+00  2.83895e+01  1.34035e+01
       O  5.78994e+00  2.91030e+01  1.11898e+01
       C  2.08823e+01  1.44051e+01  8.07168e-01
       O  2.18464e+01  1.50118e+01  1.03924e+00
       O  1.99194e+01  1.37946e+01  5.77277e-01
       C  1.53873e+01  2.19124e+01  5.64449e+00
       O  1.54461e+01  2.10702e+01  4.84527e+00
       O  1.53336e+01  2.27549e+01  6.44452e+00
       C  2.28754e+01  2.16716e+01  1.74766e+01
       O  2.34715e+01  2.07597e+01  1.70699e+01
       O  2.22807e+01  2.25857e+01  1.78798e+01
       C  1.22122e+01  1.60112e+01  1.86965e+01
       O  1.31909e+01  1.59424e+01  1.80721e+01
       O  1.12454e+01  1.60745e+01  1.93383e+01
       C  6.54530e+00  7.77656e+00  1.74371e+01
       O  7.03518e+00  6.90895e+00  1.80377e+01
       O  6.05817e+00  8.64376e+00  1.68357e+01
       C  6.23052e+00  7.53837e-01  2.34130e+01
       O  5.34420e+00  1.34886e-01  2.29848e+01
       O  7.12216e+00  1.36373e+00  2.38432e+01
       C  9.79004e+00  2.24606e+01  2.86747e+00
       O  1.07024e+01  2.17407e+01  2.88352e+00
       O  8.88204e+00  2.31861e+01  2.84542e+00
       C  1.87585e+01  1.77710e+01  1.81207e+00
       O  1.82640e+01  1.88141e+01  1.95389e+00
       O  1.92428e+01  1.67239e+01  1.66514e+00
       C  2.30656e+01  2.97531e+01 -3.46365e-01
       O  2.26611e+01  3.01948e+01  6.50535e-01
       O  2.34734e+01  2.93034e+01 -1.33769e+00
       C  2.67284e+01  8.83478e+00  2.48106e+01
       O  2.59656e+01  8.01693e+00  2.44936e+01
       O  2.74912e+01  9.65562e+00  2.51211e+01
       C  2.26066e+01  1.45443e+01  1.88432e+01
       O  2.22481e+01  1.43776e+01  1.77500e+01
       O  2.29744e+01  1.47064e+01  1.99342e+01
       C  7.78294e+00  1.38865e+01  1.32047e+01
       O  8.13212e+00  1.40667e+01  1.21105e+01
       O  7.42018e+00  1.37088e+01  1.42948e+01
       C  1.14246e+01  8.19303e+00  1.38647e+01
       O  1.07800e+01  7.28947e+00  1.35183e+01
       O  1.20470e+01  9.10801e+00  1.42213e+01
       C  1.97817e+01  2.26439e+01  2.47758e+01
       O  1.97459e+01  2.35938e+01  2.54469e+01
       O  1.98112e+01  2.16905e+01  2.41122e+01
       C  2.88722e+01  3.64318e+00  2.35303e+01
       O  2.92257e+01  4.70858e+00  2.32283e+01
       O  2.85035e+01  2.58151e+00  2.38296e+01
       C  2.45738e+01  2.77133e+01  2.00149e+01
       O  2.44102e+01  2.67520e+01  1.93816e+01
       O  2.47326e+01  2.86885e+01  2.06280e+01
       C  1.17337e+01  2.12470e+01  6.23784e+00
       O  1.06789e+01  2.16709e+01  5.99210e+00
       O  1.27841e+01  2.08163e+01  6.48797e+00
       C  2.34540e+01  8.98226e+00  2.30618e+01
       O  2.40538e+01  9.97746e+00  2.30043e+01
       O  2.28506e+01  7.99016e+00  2.31231e+01
       C  7.53641e+00  2.51698e+01  1.15498e+01
       O  7.93828e+00  2.40847e+01  1.16644e+01
       O  7.11555e+00  2.62467e+01  1.14274e+01
       C  1.99640e+01  2.93786e+01  2.72406e+01
       O  1.95772e+01  2.93396e+01  2.61455e+01
       O  2.03523e+01  2.94222e+01  2.83353e+01
       C  1.71914e+01  1.26424e+01  1.12739e+00
       O  1.69752e+01  1.34863e+01  1.89801e+00
       O  1.74003e+01  1.17904e+01  3.64474e-01
       C  2.66928e+01  2.32489e+00  1.40754e+01
       O  2.67328e+01  2.81059e+00  1.51307e+01
       O  2.66483e+01  1.83112e+00  1.30232e+01
       C  2.50846e+01  3.73926e+00  7.98460e+00
       O  2.51565e+01  4.72847e+00  8.59143e+00
       O  2.50144e+01  2.75909e+00  7.36232e+00
       C  1.85404e+01  1.60031e+01  2.35819e+01
       O  1.89260e+01  1.70469e+01  2.39176e+01
       O  1.81425e+01  1.49648e+01  2.32413e+01
       C  2.75016e+00  1.03327e+01  7.72312e+00
       O  2.06278e+00  9.93855e+00  6.87152e+00
       O  3.44144e+00  1.07276e+01  8.56949e+00
       C  2.22009e+01  2.99902e+01  2.12795e+01
       O  2.17236e+01  2.91323e+01  2.06553e+01
       O  2.26861e+01  3.08494e+01  2.18951e+01
       C  1.97944e+01  1.23560e+01  2.68633e+01
       O  2.04916e+01  1.14367e+01  2.67181e+01
       O  1.90832e+01  1.32643e+01  2.70073e+01
       C  9.68118e+00  1.54431e+00 -1.49018e+00
       O  1.07613e+01  1.45025e+00 -1.90967e+00
       O  8.59703e+00  1.64545e+00 -1.08218e+00
       C  2.42615e+01  1.78032e+01  1.67394e+01
       O  2.35995e+01  1.74734e+01  1.76369e+01
       O  2.49242e+01  1.81168e+01  1.58377e+01
       C  2.13506e+01  1.30266e+01  2.33011e+01
       O  2.20613e+01  1.27020e+01  2.24399e+01
       O  2.06363e+01  1.33404e+01  2.41626e+01
       C  1.05984e+01  1.55473e+01  1.51811e+01
       O  1.04928e+01  1.47864e+01  1.43084e+01
       O  1.07024e+01  1.63145e+01  1.60483e+01
       C  2.26965e+01  2.19505e+00  1.79198e+01
       O  2.32205e+01  2.60140e+00  1.69646e+01
       O  2.21779e+01  1.78910e+00  1.88782e+01
       C  1.37343e+01  4.74676e+00  2.52750e+01
       O  1.28224e+01  4.72544e+00  2.45534e+01
       O  1.46398e+01  4.76496e+00  2.60040e+01
       C  2.54609e+01  5.43797e+00  1.22115e+01
       O  2.64656e+01  4.90336e+00  1.19690e+01
       O  2.44664e+01  5.98588e+00  1.24594e+01
       C  9.83882e+00  5.13999e+00  2.38595e+01
       O  9.57025e+00  4.88875e+00  2.49626e+01
       O  1.00965e+01  5.38846e+00  2.27534e+01
       C  2.89567e+00  1.78828e+01  2.71084e+01
       O  2.88417e+00  1.89283e+01  2.76171e+01
       O  2.90673e+00  1.68380e+01  2.65979e+01
       C  4.20081e+00  2.55980e+01  1.08827e+01
       O  3.75728e+00  2.65330e+01  1.14118e+01
       O  4.64561e+00  2.46605e+01  1.03564e+01
       C  2.27163e+01  2.88609e+00  1.40134e+01
       O  2.38476e+01  2.99765e+00  1.37669e+01
       O  2.15854e+01  2.75987e+00  1.42538e+01
       C  1.46120e+01  3.02436e+01  2.23862e+01
       O  1.47293e+01  3.03166e+01  2.12324e+01
       O  1.44853e+01  3.01706e+01  2.35404e+01
       C  2.83963e+01  8.54471e+00  1.28257e+01
       O  2.83931e+01  7.45037e+00  1.32212e+01
       O  2.83924e+01  9.63510e+00  1.24235e+01
       C  2.47430e+01  1.23497e+01  2.11507e+01
       O  2.42395e+01  1.19142e+01  2.01971e+01
       O  2.52479e+01  1.27914e+01  2.21002e+01
       C  1.84063e+00  2.69165e+01  2.18468e+01
       O  2.52584e+00  2.63281e+01  2.11156e+01
       O  1.14971e+00  2.74959e+01  2.25814e+01
       C  2.23967e+01  6.90869e+00  7.26526e+00
       O  2.13451e+01  6.43411e+00  7.11845e+00
       O  2.34467e+01  7.38462e+00  7.41495e+00
       C  1.58470e+01  2.34448e+01  2.53769e+01
       O  1.49738e+01  2.40441e+01  2.58569e+01
       O  1.67306e+01  2.28438e+01  2.49178e+01
       C  2.29324e+01  7.20477e+00  2.01455e+01
       O  2.18622e+01  6.77381e+00  1.99976e+01
       O  2.40036e+01  7.63597e+00  2.02817e+01
       C  1.91573e+01  2.76394e+01  1.97732e+01
       O  1.87752e+01  2.86864e+01  1.94399e+01
       O  1.95225e+01  2.65900e+01  2.01164e+01
       C  1.67494e+00  8.11305e+00  1.09848e+01
       O  2.11108e+00  7.96434e+00  9.91659e+00
       O  1.23334e+00  8.24627e+00  1.20524e+01
       C  4.21650e+00  1.02211e+01  2.56711e+01
       O  4.50683e+00  1.13153e+01  2.54069e+01
       O  3.92913e+00  9.12668e+00  2.59410e+01
       C  2.75334e+01  8.87466e+00  3.48909e+00
       O  2.76732e+01  9.42074e+00  2.47262e+00
       O  2.73890e+01  8.32830e+00  4.50582e+00
       C  2.92051e+01 -1.01622e-01  2.26848e+01
       O  3.00408e+01  4.78123e-01  2.21215e+01
       O  2.83652e+01 -6.84886e-01  2.32381e+01
       C  2.29495e+01  1.43944e+01  2.76562e+01
       O  2.21090e+01  1.37786e+01  2.81725e+01
       O  2.37941e+01  1.50004e+01  2.71357e+01
       C  2.25270e+01  2.95106e+01  2.48899e+01
       O  2.24500e+01  2.86907e+01  2.40685e+01
       O  2.25951e+01  3.03222e+01  2.57200e+01
       C  2.34652e+01  4.10278e+00  4.38302e+00
       O  2.28850e+01  3.89135e+00  5.36922e+00
       O  2.40457e+01  4.32657e+00  3.40096e+00
       C  2.22930e+01  1.16576e+01  1.64018e+01
       O  2.34442e+01  1.16832e+01  1.65628e+01
       O  2.11433e+01  1.16174e+01  1.62323e+01
       C  7.41114e+00  2.47333e+01  3.07167e+01
       O  6.83993e+00  2.37533e+01  3.04612e+01
       O  7.98941e+00  2.57133e+01  3.09577e+01
       C  1.80316e+01  8.46251e+00  2.03823e+01
       O  1.70558e+01  8.26796e+00  1.97808e+01
       O  1.90089e+01  8.66605e+00  2.09791e+01
       C  2.43022e+01  1.73083e+00  1.08555e+01
       O  2.43999e+01  5.73966e-01  1.09225e+01
       O  2.41972e+01  2.88690e+00  1.07906e+01
       C  2.21805e+01  1.65979e+01  2.20370e+01
       O  2.30134e+01  1.73246e+01  2.16755e+01
       O  2.13403e+01  1.58776e+01  2.23956e+01
       C  1.20206e+01  4.43416e+00  1.82047e+01
       O  1.11088e+01  3.75205e+00  1.84400e+01
       O  1.29393e+01  5.10889e+00  1.79764e+01
       C  9.04128e+00  5.56633e+00  1.99512e+01
       O  8.25780e+00  4.76190e+00  2.02536e+01
       O  9.81869e+00  6.36736e+00  1.96253e+01
       C  5.28432e+00  6.90651e+00  2.77581e+01
       O  4.89894e+00  7.35209e+00  2.87606e+01
       O  5.66566e+00  6.45992e+00  2.67540e+01
       C  1.01010e+01  7.47610e+00  1.69462e+01
       O  9.66015e+00  8.49323e+00  1.72994e+01
       O  1.05164e+01  6.45945e+00  1.65657e+01
       C  6.64876e+00  4.01142e+00  2.51128e+01
       O  6.62759e+00  4.54225e+00  2.40776e+01
       O  6.66803e+00  3.47860e+00  2.61463e+01
       C  2.60225e+01  1.88676e+01  5.22078e+00
       O  2.69331e+01  1.93721e+01  5.73894e+00
       O  2.51085e+01  1.83697e+01  4.70288e+00
       C  9.01609e+00  1.88657e+01  2.53634e+01
       O  1.01498e+01  1.88497e+01  2.51046e+01
       O  7.88517e+00  1.88831e+01  2.56323e+01
       C  1.40301e+01  5.33694e+00  1.50868e+01
       O  1.34945e+01  6.31495e+00  1.47568e+01
       O  1.45723e+01  4.36083e+00  1.54110e+01