LAMMPS Description

840  atoms
 560  bonds
 280  angles

 2  atom types
 1  bond types
 1  angle types


0.0 50.053 xlo xhi
0.0 50.053 ylo yhi
0.0 50.053 zlo zhi

Masses

  1 12.0107
  2 15.9994

Bond Coeffs

 1    2.196    0.45106005 -0.67297933 0.5857145

Angle Coeffs

  1    0.0861  180.000000

Atoms

1 1 1 0.651200 12.784800 18.377505 28.430611
2 1 2 -0.325600 13.471977 16.500582 29.339872
3 1 2 -0.325600 12.097623 20.254428 27.521349
4 2 1 0.651200 43.089833 21.653670 43.463130
5 2 2 -0.325600 43.811316 22.992307 45.047214
6 2 2 -0.325600 42.368350 20.315032 41.879047
7 3 1 0.651200 29.405920 7.245265 39.357641
8 3 2 -0.325600 29.636792 9.220779 38.427128
9 3 2 -0.325600 29.175048 5.269752 40.288154
10 4 1 0.651200 22.633366 22.522087 32.704417
11 4 2 -0.325600 20.750137 23.622960 32.956085
12 4 2 -0.325600 24.516595 21.421213 32.452749
13 5 1 0.651200 4.954741 29.801233 38.417984
14 5 2 -0.325600 3.847198 28.220750 37.370495
15 5 2 -0.325600 6.062283 31.381716 39.465472
16 6 1 0.651200 7.174606 38.220056 17.234619
17 6 2 -0.325600 7.951692 36.202919 16.848479
18 6 2 -0.325600 6.397521 40.237194 17.620760
19 7 1 0.651200 45.305074 25.179121 14.206241
20 7 2 -0.325600 43.843107 26.543335 13.298837
21 7 2 -0.325600 46.767041 23.814907 15.113645
22 8 1 0.651200 17.007779 48.713055 5.566018
23 8 2 -0.325600 17.043889 48.423945 3.389571
24 8 2 -0.325600 16.971668 49.002165 7.742465
25 9 1 0.651200 8.684291 8.405196 34.240670
26 9 2 -0.325600 6.788311 7.599922 33.480008
27 9 2 -0.325600 10.580270 9.210469 35.001333
28 10 1 0.651200 46.564087 3.031892 16.268762
29 10 2 -0.325600 47.092130 2.577374 14.186361
30 10 2 -0.325600 46.036044 3.486410 18.351163
31 11 1 0.651200 25.290536 31.153158 9.432759
32 11 2 -0.325600 23.310941 30.214515 9.580951
33 11 2 -0.325600 27.270131 32.091802 9.284567
34 12 1 0.651200 18.247440 9.428122 15.145178
35 12 2 -0.325600 18.236053 11.588543 15.537939
36 12 2 -0.325600 18.258827 7.267702 14.752416
37 13 1 0.651200 23.178502 36.432427 5.498132
38 13 2 -0.325600 21.659285 34.984445 4.852269
39 13 2 -0.325600 24.697719 37.880408 6.143995
40 14 1 0.651200 11.278588 37.270095 4.180118
41 14 2 -0.325600 11.409914 39.114627 5.364291
42 14 2 -0.325600 11.147261 35.425564 2.995945
43 15 1 0.651200 0.541380 17.972379 43.174393
44 15 2 -0.325600 1.082956 17.182715 41.198303
45 15 2 -0.325600 -0.000196 18.762044 45.150484
46 16 1 0.651200 28.504367 29.956702 26.822257
47 16 2 -0.325600 30.117969 30.139838 28.300283
48 16 2 -0.325600 26.890765 29.773566 25.344232
49 17 1 0.651200 48.636416 9.943036 29.881926
50 17 2 -0.325600 50.055967 11.602932 29.655148
51 17 2 -0.325600 47.216865 8.283139 30.108704
52 18 1 0.651200 19.801639 2.630341 44.554353
53 18 2 -0.325600 20.381710 1.988299 42.536158
54 18 2 -0.325600 19.221568 3.272383 46.572548
55 19 1 0.651200 17.764336 49.792709 15.027379
56 19 2 -0.325600 16.723217 50.052656 16.943183
57 19 2 -0.325600 18.805455 49.532761 13.111574
58 20 1 0.651200 41.014263 10.221617 10.105324
59 20 2 -0.325600 41.189676 10.574570 12.265524
60 20 2 -0.325600 40.838851 9.868663 7.945124
61 21 1 0.651200 42.319868 14.496841 4.423949
62 21 2 -0.325600 40.749929 15.998340 4.744266
63 21 2 -0.325600 43.889807 12.995341 4.103632
64 22 1 0.651200 30.624667 7.835353 16.122419
65 22 2 -0.325600 31.554188 9.561956 17.110672
66 22 2 -0.325600 29.695146 6.108750 15.134167
67 23 1 0.651200 38.873860 39.582239 22.119896
68 23 2 -0.325600 38.640946 41.290512 23.479810
69 23 2 -0.325600 39.106774 37.873966 20.759983
70 24 1 0.651200 2.258425 9.822750 40.451664
71 24 2 -0.325600 3.549884 8.172050 41.106747
72 24 2 -0.325600 0.966966 11.473450 39.796581
73 25 1 0.651200 5.400007 48.789108 22.451305
74 25 2 -0.325600 4.887768 47.525235 24.172365
75 25 2 -0.325600 5.912246 50.052980 20.730245
76 26 1 0.651200 34.417228 20.887609 4.118616
77 26 2 -0.325600 36.609032 20.896514 3.985487
78 26 2 -0.325600 32.225423 20.878704 4.251745
79 27 1 0.651200 28.563880 36.840279 13.067723
80 27 2 -0.325600 28.324087 38.230064 11.384628
81 27 2 -0.325600 28.803673 35.450494 14.750817
82 28 1 0.651200 38.064695 35.266988 26.192482
83 28 2 -0.325600 40.171954 35.495030 25.618662
84 28 2 -0.325600 35.957437 35.038947 26.766302
85 29 1 0.651200 24.398014 34.814379 29.692630
86 29 2 -0.325600 26.454206 34.593657 28.954278
87 29 2 -0.325600 22.341821 35.035102 30.430983
88 30 1 0.651200 8.954787 13.331665 29.495830
89 30 2 -0.325600 9.537253 13.158996 27.385681
90 30 2 -0.325600 8.372321 13.504333 31.605979
91 31 1 0.651200 9.636478 0.324170 40.864241
92 31 2 -0.325600 7.762164 0.647810 41.961518
93 31 2 -0.325600 11.510791 0.000530 39.766964
94 32 1 0.651200 50.054387 18.176289 25.891544
95 32 2 -0.325600 50.052110 19.699479 24.309869
96 32 2 -0.325600 50.056665 16.653099 27.473219
97 33 1 0.651200 17.566160 40.688908 3.693188
98 33 2 -0.325600 16.515518 39.234028 2.427769
99 33 2 -0.325600 18.616802 42.143788 4.958607
100 34 1 0.651200 34.457271 29.471633 1.272981
101 34 2 -0.325600 36.145481 30.040296 2.556873
102 34 2 -0.325600 32.769060 28.902971 -0.010911
103 35 1 0.651200 44.233640 46.363820 0.364672
104 35 2 -0.325600 46.175855 45.345860 0.480285
105 35 2 -0.325600 42.291424 47.381779 0.249059
106 36 1 0.651200 49.869354 13.134691 40.753237
107 36 2 -0.325600 50.052981 15.282450 41.171829
108 36 2 -0.325600 49.685727 10.986931 40.334645
109 37 1 0.651200 37.602731 25.690054 28.076186
110 37 2 -0.325600 35.895556 24.574613 28.890529
111 37 2 -0.325600 39.309906 26.805494 27.261843
112 38 1 0.651200 12.984217 23.926290 20.318842
113 38 2 -0.325600 11.069189 24.963108 20.600776
114 38 2 -0.325600 14.899245 22.889472 20.036908
115 39 1 0.651200 23.334784 15.952823 16.792209
116 39 2 -0.325600 24.652003 14.305703 17.403551
117 39 2 -0.325600 22.017566 17.599944 16.180867
118 40 1 0.651200 34.614660 36.317434 41.574128
119 40 2 -0.325600 35.026485 37.895879 40.104189
120 40 2 -0.325600 34.202836 34.738988 43.044067
121 41 1 0.651200 46.497966 4.083524 42.132768
122 41 2 -0.325600 44.568489 3.119422 42.544396
123 41 2 -0.325600 48.427442 5.047625 41.721139
124 42 1 0.651200 37.789061 43.246527 31.744246
125 42 2 -0.325600 38.378039 43.642974 29.666328
126 42 2 -0.325600 37.200083 42.850079 33.822164
127 43 1 0.651200 22.728770 36.357698 13.629495
128 43 2 -0.325600 21.972758 38.418457 13.688899
129 43 2 -0.325600 23.484782 34.296939 13.570092
130 44 1 0.651200 37.933250 17.488050 37.041245
131 44 2 -0.325600 36.633134 15.779303 36.581150
132 44 2 -0.325600 39.233367 19.196798 37.501341
133 45 1 0.651200 12.700271 41.400914 20.779026
134 45 2 -0.325600 14.515739 42.635868 20.751200
135 45 2 -0.325600 10.884804 40.165959 20.806853
136 46 1 0.651200 13.036497 9.781277 50.054228
137 46 2 -0.325600 15.080186 8.978068 50.055113
138 46 2 -0.325600 10.992808 10.584485 50.053343
139 47 1 0.651200 25.910892 18.452968 5.407766
140 47 2 -0.325600 26.610926 19.302207 3.507620
141 47 2 -0.325600 25.210858 17.603729 7.307912
142 48 1 0.651200 46.977191 2.237418 23.646481
143 48 2 -0.325600 46.428775 4.107397 24.658522
144 48 2 -0.325600 47.525608 0.367439 22.634439
145 49 1 0.651200 44.260548 2.263995 9.424028
146 49 2 -0.325600 45.862631 0.866424 8.874542
147 49 2 -0.325600 42.658466 3.661566 9.973515
148 50 1 0.651200 29.762133 25.324133 38.701821
149 50 2 -0.325600 30.456301 23.290695 38.248973
150 50 2 -0.325600 29.067966 27.357571 39.154670
151 51 1 0.651200 6.255586 16.055442 9.628851
152 51 2 -0.325600 6.799108 14.583160 11.164683
153 51 2 -0.325600 5.712064 17.527723 8.093018
154 52 1 0.651200 32.277050 46.055426 32.370884
155 52 2 -0.325600 30.446847 44.851401 32.220917
156 52 2 -0.325600 34.107253 47.259451 32.520851
157 53 1 0.651200 31.741060 23.474854 47.420090
158 53 2 -0.325600 31.885537 21.485123 46.502536
159 53 2 -0.325600 31.596583 25.464585 48.337645
160 54 1 0.651200 41.969370 29.847469 23.519032
161 54 2 -0.325600 43.242565 30.346458 25.237111
162 54 2 -0.325600 40.696175 29.348480 21.800954
163 55 1 0.651200 35.489047 20.758108 42.205820
164 55 2 -0.325600 37.016564 21.782787 43.405209
165 55 2 -0.325600 33.961529 19.733429 41.006431
166 56 1 0.651200 17.399098 29.349420 22.698703
167 56 2 -0.325600 19.213831 30.553236 22.416954
168 56 2 -0.325600 15.584365 28.145604 22.980453
169 57 1 0.651200 37.754943 0.183930 33.824626
170 57 2 -0.325600 37.766572 0.000301 31.636487
171 57 2 -0.325600 37.743313 0.367558 36.012766
172 58 1 0.651200 26.599688 1.221763 27.439950
173 58 2 -0.325600 25.659595 1.020322 25.465752
174 58 2 -0.325600 27.539780 1.423204 29.414148
175 59 1 0.651200 21.928524 11.504267 41.235930
176 59 2 -0.325600 23.768181 10.585507 40.465639
177 59 2 -0.325600 20.088866 12.423028 42.006221
178 60 1 0.651200 43.642314 10.595168 24.827107
179 60 2 -0.325600 45.695840 9.852869 25.059119
180 60 2 -0.325600 41.588787 11.337468 24.595095
181 61 1 0.651200 16.027410 7.113333 40.074977
182 61 2 -0.325600 14.223978 6.872238 38.845621
183 61 2 -0.325600 17.830841 7.354428 41.304334
184 62 1 0.651200 3.968122 33.280957 49.040263
185 62 2 -0.325600 4.651000 31.428647 50.001737
186 62 2 -0.325600 3.285243 35.133268 48.078789
187 63 1 0.651200 1.798461 43.922704 17.961198
188 63 2 -0.325600 3.443314 44.707822 19.185884
189 63 2 -0.325600 0.153607 43.137585 16.736512
190 64 1 0.651200 39.424436 5.461047 23.990882
191 64 2 -0.325600 40.991206 4.138177 23.205354
192 64 2 -0.325600 37.857666 6.783918 24.776411
193 65 1 0.651200 23.853304 48.344382 36.090845
194 65 2 -0.325600 25.040414 46.619842 36.753069
195 65 2 -0.325600 22.666194 50.068923 35.428622
196 66 1 0.651200 48.571603 14.970836 20.500130
197 66 2 -0.325600 50.052307 16.436913 19.807350
198 66 2 -0.325600 47.090898 13.504760 21.192909
199 67 1 0.651200 45.021121 21.330966 36.687295
200 67 2 -0.325600 45.408338 23.388842 37.348370
201 67 2 -0.325600 44.633904 19.273091 36.026219
202 68 1 0.651200 -0.000280 42.367282 42.789019
203 68 2 -0.325600 -0.000185 43.735663 44.506384
204 68 2 -0.325600 -0.000375 40.998901 41.071653
205 69 1 0.651200 33.808951 12.419561 12.986245
206 69 2 -0.325600 31.863196 13.434938 13.055914
207 69 2 -0.325600 35.754707 11.404184 12.916576
208 70 1 0.651200 28.336499 39.932845 43.896865
209 70 2 -0.325600 28.527677 41.352151 42.232283
210 70 2 -0.325600 28.145322 38.513540 45.561447
211 71 1 0.651200 39.387262 11.375184 32.271272
212 71 2 -0.325600 41.315463 10.390023 32.636384
213 71 2 -0.325600 37.459061 12.360346 31.906160
214 72 1 0.651200 31.429052 44.475848 37.996840
215 72 2 -0.325600 32.794680 43.005971 37.104467
216 72 2 -0.325600 30.063423 45.945725 38.889213
217 73 1 0.651200 6.559908 18.507397 44.129984
218 73 2 -0.325600 5.420858 18.396019 46.004009
219 73 2 -0.325600 7.698958 18.618774 42.255958
220 74 1 0.651200 45.327534 19.192509 2.815651
221 74 2 -0.325600 46.904048 17.735201 3.276805
222 74 2 -0.325600 43.751019 20.649818 2.354497
223 75 1 0.651200 38.924805 26.687591 47.776559
224 75 2 -0.325600 40.905835 26.618395 48.721304
225 75 2 -0.325600 36.943775 26.756787 46.831814
226 76 1 0.651200 41.472551 50.053697 43.828563
227 76 2 -0.325600 42.824039 50.054156 42.097873
228 76 2 -0.325600 40.121062 50.053238 45.559252
229 77 1 0.651200 36.157608 4.492280 8.263402
230 77 2 -0.325600 34.702368 3.859966 9.781383
231 77 2 -0.325600 37.612847 5.124594 6.745421
232 78 1 0.651200 37.539396 19.952701 26.316966
233 78 2 -0.325600 35.574096 18.992234 26.509089
234 78 2 -0.325600 39.504695 20.913168 26.124844
235 79 1 0.651200 30.415736 14.756688 34.174234
236 79 2 -0.325600 30.728028 12.865650 33.102666
237 79 2 -0.325600 30.103445 16.647726 35.245802
238 80 1 0.651200 38.623888 -0.002018 14.034451
239 80 2 -0.325600 36.587651 -0.002967 13.212535
240 80 2 -0.325600 40.660126 -0.001068 14.856368
241 81 1 0.651200 35.331769 29.389166 33.943524
242 81 2 -0.325600 34.429970 28.932926 31.994059
243 81 2 -0.325600 36.233567 29.845407 35.892989
244 82 1 0.651200 24.928960 7.876092 31.964045
245 82 2 -0.325600 26.961962 7.220408 31.455329
246 82 2 -0.325600 22.895958 8.531775 32.472762
247 83 1 0.651200 18.645808 11.812347 34.409887
248 83 2 -0.325600 17.492325 12.442077 32.650703
249 83 2 -0.325600 19.799292 11.182616 36.169070
250 84 1 0.651200 5.107691 11.450745 46.320136
251 84 2 -0.325600 3.139870 12.417063 46.445511
252 84 2 -0.325600 7.075512 10.484426 46.194762
253 85 1 0.651200 17.791054 16.755032 25.721890
254 85 2 -0.325600 18.998487 15.487282 27.047305
255 85 2 -0.325600 16.583621 18.022782 24.396475
256 86 1 0.651200 10.417041 7.898358 42.680327
257 86 2 -0.325600 9.883242 9.376566 41.146778
258 86 2 -0.325600 10.950840 6.420150 44.213875
259 87 1 0.651200 40.800108 33.123584 10.825520
260 87 2 -0.325600 40.447621 34.460032 9.119218
261 87 2 -0.325600 41.152596 31.787135 12.531823
262 88 1 0.651200 13.852019 31.986591 40.259556
263 88 2 -0.325600 15.510608 32.425404 41.630080
264 88 2 -0.325600 12.193430 31.547777 38.889032
265 89 1 0.651200 24.097148 8.752199 24.465711
266 89 2 -0.325600 23.650059 10.615790 23.393819
267 89 2 -0.325600 24.544237 6.888609 25.537602
268 90 1 0.651200 10.474988 19.862778 48.720561
269 90 2 -0.325600 9.571095 18.369645 50.052981
270 90 2 -0.325600 11.378882 21.355910 47.388141
271 91 1 0.651200 9.812960 6.012082 26.700958
272 91 2 -0.325600 10.975440 4.549756 25.546812
273 91 2 -0.325600 8.650480 7.474407 27.855105
274 92 1 0.651200 24.012803 16.707549 22.395024
275 92 2 -0.325600 21.930199 16.073149 22.108479
276 92 2 -0.325600 26.095407 17.341949 22.681570
277 93 1 0.651200 11.592753 15.889633 21.275506
278 93 2 -0.325600 12.729215 17.598380 20.494194
279 93 2 -0.325600 10.456292 14.180886 22.056818
280 94 1 0.651200 12.916075 9.162014 1.698951
281 94 2 -0.325600 13.581639 11.254527 1.713867
282 94 2 -0.325600 12.250511 7.069501 1.684036
283 95 1 0.651200 0.970641 12.355689 22.721749
284 95 2 -0.325600 1.940837 10.980555 24.132259
285 95 2 -0.325600 0.000445 13.730822 21.311239
286 96 1 0.651200 28.354796 26.978413 2.644727
287 96 2 -0.325600 28.734137 24.815688 2.621727
288 96 2 -0.325600 27.975455 29.141139 2.667726
289 97 1 0.651200 33.716508 0.619115 25.384476
290 97 2 -0.325600 35.039038 1.240251 27.023657
291 97 2 -0.325600 32.393979 -0.002021 23.745294
292 98 1 0.651200 9.862055 40.705046 26.220694
293 98 2 -0.325600 9.507973 38.592893 26.705716
294 98 2 -0.325600 10.216138 42.817199 25.735672
295 99 1 0.651200 41.090232 10.334016 -0.003824
296 99 2 -0.325600 43.026290 9.297926 -0.001773
297 99 2 -0.325600 39.154174 11.370107 -0.005876
298 100 1 0.651200 45.761116 31.978749 42.809350
299 100 2 -0.325600 47.911045 31.585203 43.020867
300 100 2 -0.325600 43.611188 32.372295 42.597834
301 101 1 0.651200 41.876681 19.169992 50.033517
302 101 2 -0.325600 41.800264 16.976691 50.107005
303 101 2 -0.325600 41.953097 21.363293 49.960028
304 102 1 0.651200 49.126199 11.373274 2.486848
305 102 2 -0.325600 49.943846 13.158148 3.470459
306 102 2 -0.325600 48.308551 9.588401 1.503238
307 103 1 0.651200 11.696164 21.185469 7.362931
308 103 2 -0.325600 11.427050 22.891948 6.007455
309 103 2 -0.325600 11.965278 19.478990 8.718407
310 104 1 0.651200 44.536932 44.344200 28.553928
311 104 2 -0.325600 45.281803 46.040900 27.375716
312 104 2 -0.325600 43.792061 42.647499 29.732140
313 105 1 0.651200 41.193998 31.653319 31.461238
314 105 2 -0.325600 43.270737 30.970897 31.669249
315 105 2 -0.325600 39.117260 32.335741 31.253226
316 106 1 0.651200 49.547639 43.586854 31.843833
317 106 2 -0.325600 49.042531 44.019591 33.936539
318 106 2 -0.325600 50.052746 43.154118 29.751128
319 107 1 0.651200 27.677171 27.111910 20.580213
320 107 2 -0.325600 25.770491 26.262284 21.261767
321 107 2 -0.325600 29.583851 27.961536 19.898658
322 108 1 0.651200 0.414045 9.342441 13.076328
323 108 2 -0.325600 0.828050 7.273482 12.468200
324 108 2 -0.325600 0.000041 11.411400 13.684456
325 109 1 0.651200 21.466035 27.487199 14.594579
326 109 2 -0.325600 23.205208 28.748366 15.049055
327 109 2 -0.325600 19.726863 26.226033 14.140102
328 110 1 0.651200 28.900640 0.308262 36.713362
329 110 2 -0.325600 27.502786 0.000000 38.378532
330 110 2 -0.325600 30.298494 0.616523 35.048193
331 111 1 0.651200 38.246524 46.496542 40.145786
332 111 2 -0.325600 39.372986 45.637127 38.468198
333 111 2 -0.325600 37.120062 47.355957 41.823373
334 112 1 0.651200 37.551099 10.948655 44.248141
335 112 2 -0.325600 39.576728 11.386031 43.521960
336 112 2 -0.325600 35.525470 10.511278 44.974321
337 113 1 0.651200 20.323179 38.086827 42.764398
338 113 2 -0.325600 22.369653 38.537652 42.108265
339 113 2 -0.325600 18.276704 37.636002 43.420531
340 114 1 0.651200 11.902755 47.804340 21.514304
341 114 2 -0.325600 12.293219 47.859852 19.354150
342 114 2 -0.325600 11.512292 47.748827 23.674458
343 115 1 0.651200 24.053852 4.158280 36.809097
344 115 2 -0.325600 23.836967 5.404028 38.604336
345 115 2 -0.325600 24.270738 2.912532 35.013858
346 116 1 0.651200 37.919380 17.140534 46.213348
347 116 2 -0.325600 39.708625 16.673697 45.029086
348 116 2 -0.325600 36.130136 17.607372 47.397610
349 117 1 0.651200 30.326761 15.732900 -0.020622
350 117 2 -0.325600 30.551717 17.916638 -0.070553
351 117 2 -0.325600 30.101805 13.549162 0.029309
352 118 1 0.651200 31.895826 33.854902 36.706743
353 118 2 -0.325600 32.094995 32.526439 38.443789
354 118 2 -0.325600 31.696657 35.183364 34.969697
355 119 1 0.651200 26.217709 8.059979 46.134056
356 119 2 -0.325600 27.243929 8.864270 44.367195
357 119 2 -0.325600 25.191490 7.255689 47.900918
358 120 1 0.651200 10.466492 41.064336 36.653284
359 120 2 -0.325600 10.770828 38.893011 36.773859
360 120 2 -0.325600 10.162156 43.235661 36.532710
361 121 1 0.651200 16.838294 37.938420 28.078213
362 121 2 -0.325600 14.779677 37.180882 27.977989
363 121 2 -0.325600 18.896910 38.695958 28.178436
364 122 1 0.651200 38.354720 4.975742 42.751681
365 122 2 -0.325600 38.031742 4.567541 44.884957
366 122 2 -0.325600 38.677697 5.383943 40.618405
367 123 1 0.651200 14.125819 7.506549 30.567057
368 123 2 -0.325600 14.197316 6.049977 32.208732
369 123 2 -0.325600 14.054322 8.963121 28.925383
370 124 1 0.651200 18.777206 1.428305 29.106494
371 124 2 -0.325600 16.709179 2.166542 29.097429
372 124 2 -0.325600 20.845232 0.690067 29.115558
373 125 1 0.651200 1.152616 14.843914 32.200427
374 125 2 -0.325600 1.332338 12.655496 32.218769
375 125 2 -0.325600 0.972893 17.032333 32.182085
376 126 1 0.651200 33.939839 46.934902 6.582306
377 126 2 -0.325600 32.229990 45.721919 7.235681
378 126 2 -0.325600 35.649688 48.147885 5.928932
379 127 1 0.651200 5.236337 17.420702 25.753921
380 127 2 -0.325600 3.866825 17.181612 27.453651
381 127 2 -0.325600 6.605849 17.659792 24.054191
382 128 1 0.651200 3.659040 34.566174 20.334648
383 128 2 -0.325600 2.874786 36.616735 20.290453
384 128 2 -0.325600 4.443293 32.515612 20.378844
385 129 1 0.651200 26.216720 33.530150 40.656665
386 129 2 -0.325600 24.656220 31.986066 40.607089
387 129 2 -0.325600 27.777219 35.074234 40.706241
388 130 1 0.651200 15.686048 15.747164 48.588398
389 130 2 -0.325600 13.813702 14.803093 47.936586
390 130 2 -0.325600 17.558395 16.691235 49.240211
391 131 1 0.651200 6.373158 42.456293 40.934639
392 131 2 -0.325600 4.994943 42.375249 39.227078
393 131 2 -0.325600 7.751373 42.537336 42.642200
394 132 1 0.651200 16.395689 43.424920 10.510789
395 132 2 -0.325600 14.264944 43.402878 9.980459
396 132 2 -0.325600 18.526434 43.446962 11.041118
397 133 1 0.651200 16.460477 10.535941 21.619164
398 133 2 -0.325600 14.322368 10.268015 22.041673
399 133 2 -0.325600 18.598587 10.803867 21.196654
400 134 1 0.651200 15.894652 26.282783 45.250268
401 134 2 -0.325600 16.900139 25.236418 46.898274
402 134 2 -0.325600 14.889165 27.329147 43.602261
403 135 1 0.651200 45.787778 42.541761 18.272189
404 135 2 -0.325600 46.148524 40.394878 17.984841
405 135 2 -0.325600 45.427031 44.688643 18.559537
406 136 1 0.651200 47.615086 24.675655 20.485649
407 136 2 -0.325600 47.341079 22.497800 20.424988
408 136 2 -0.325600 47.889093 26.853509 20.546310
409 137 1 0.651200 8.436716 4.589970 49.313996
410 137 2 -0.325600 6.243992 4.685150 49.245354
411 137 2 -0.325600 10.629440 4.494790 49.382637
412 138 1 0.651200 34.937992 13.499634 2.812097
413 138 2 -0.325600 34.377604 11.378418 2.721431
414 138 2 -0.325600 35.498380 15.620849 2.902762
415 139 1 0.651200 47.456366 24.349861 27.130078
416 139 2 -0.325600 49.633567 24.236190 27.392157
417 139 2 -0.325600 45.279166 24.463531 26.868000
418 140 1 0.651200 4.120824 37.722870 30.306046
419 140 2 -0.325600 5.717409 38.774151 31.386570
420 140 2 -0.325600 2.524239 36.671588 29.225521
421 141 1 0.651200 30.723589 27.856284 13.397826
422 141 2 -0.325600 32.823247 27.295641 13.083306
423 141 2 -0.325600 28.623930 28.416927 13.712346
424 142 1 0.651200 12.052911 21.480967 38.949388
425 142 2 -0.325600 9.965430 21.700911 38.304518
426 142 2 -0.325600 14.140392 21.261023 39.594258
427 143 1 0.651200 43.617654 48.986861 34.498090
428 143 2 -0.325600 44.363011 47.921037 32.728833
429 143 2 -0.325600 42.872296 50.052686 36.267347
430 144 1 0.651200 21.384702 22.979050 20.771233
431 144 2 -0.325600 21.321805 22.398993 22.888162
432 144 2 -0.325600 21.447600 23.559107 18.654304
433 145 1 0.651200 1.001221 31.241469 15.961043
434 145 2 -0.325600 0.980615 33.358463 15.378184
435 145 2 -0.325600 1.021827 29.124476 16.543903
436 146 1 0.651200 26.603887 19.751741 48.940084
437 146 2 -0.325600 26.251006 21.907406 48.715606
438 146 2 -0.325600 26.956767 17.596075 49.164562
439 147 1 0.651200 31.768101 19.635497 22.486965
440 147 2 -0.325600 32.192690 17.539700 21.987795
441 147 2 -0.325600 31.343512 21.731293 22.986134
442 148 1 0.651200 9.700212 37.571495 11.506845
443 148 2 -0.325600 7.963712 36.271313 11.166399
444 148 2 -0.325600 11.436712 38.871677 11.847291
445 149 1 0.651200 42.495102 21.135405 31.173934
446 149 2 -0.325600 40.432060 21.703345 31.667000
447 149 2 -0.325600 44.558143 20.567465 30.680869
448 150 1 0.651200 43.163840 37.143631 46.043685
449 150 2 -0.325600 41.508175 35.768009 46.477557
450 150 2 -0.325600 44.819506 38.519254 45.609812
451 151 1 0.651200 4.295579 25.302312 46.975034
452 151 2 -0.325600 5.691272 23.685845 47.485804
453 151 2 -0.325600 2.899885 26.918779 46.464265
454 152 1 0.651200 5.754256 14.690017 37.915917
455 152 2 -0.325600 4.032675 15.528972 36.841616
456 152 2 -0.325600 7.475837 13.851062 38.990218
457 153 1 0.651200 7.825706 44.402741 6.898837
458 153 2 -0.325600 5.664124 44.026866 6.988788
459 153 2 -0.325600 9.987288 44.778617 6.808885
460 154 1 0.651200 17.449311 18.823527 33.404111
461 154 2 -0.325600 19.151515 18.304910 32.117509
462 154 2 -0.325600 15.747106 19.342144 34.690714
463 155 1 0.651200 35.482750 39.236313 10.075361
464 155 2 -0.325600 37.487080 39.718761 10.831480
465 155 2 -0.325600 33.478421 38.753865 9.319242
466 156 1 0.651200 27.465006 42.272858 17.599880
467 156 2 -0.325600 29.481722 41.943463 18.403722
468 156 2 -0.325600 25.448290 42.602254 16.796037
469 157 1 0.651200 22.438049 16.760419 37.826241
470 157 2 -0.325600 20.319817 17.279468 38.082151
471 157 2 -0.325600 24.556281 16.241369 37.570331
472 158 1 0.651200 44.509866 49.881610 6.859446
473 158 2 -0.325600 42.327068 50.052922 6.692548
474 158 2 -0.325600 46.692664 49.710297 7.026344
475 159 1 0.651200 35.552218 48.935588 12.949411
476 159 2 -0.325600 34.553127 50.052684 14.554316
477 159 2 -0.325600 36.551310 47.818491 11.344505
478 160 1 0.651200 46.758202 45.594078 48.702634
479 160 2 -0.325600 45.047130 44.665420 49.718329
480 160 2 -0.325600 48.469274 46.522736 47.686938
481 161 1 0.651200 18.711262 1.500193 22.344433
482 161 2 -0.325600 16.681701 0.892960 21.766542
483 161 2 -0.325600 20.740824 2.107426 22.922324
484 162 1 0.651200 16.150600 36.252738 7.950875
485 162 2 -0.325600 17.398432 37.979836 8.481778
486 162 2 -0.325600 14.902768 34.525640 7.419973
487 163 1 0.651200 25.012324 30.964542 35.213960
488 163 2 -0.325600 26.043201 32.900794 35.113801
489 163 2 -0.325600 23.981447 29.028290 35.314119
490 164 1 0.651200 27.097087 50.053842 21.040032
491 164 2 -0.325600 27.523071 50.054009 18.885885
492 164 2 -0.325600 26.671102 50.053674 23.194178
493 165 1 0.651200 16.037412 30.640208 49.915284
494 165 2 -0.325600 18.228919 30.653016 50.052915
495 165 2 -0.325600 13.845905 30.627399 49.777653
496 166 1 0.651200 15.267447 16.774978 42.703101
497 166 2 -0.325600 13.142148 16.223922 42.667723
498 166 2 -0.325600 17.392746 17.326034 42.738479
499 167 1 0.651200 19.129425 42.836711 17.551117
500 167 2 -0.325600 20.314853 41.110185 18.211177
501 167 2 -0.325600 17.943997 44.563238 16.891058
502 168 1 0.651200 16.994678 44.857757 26.876716
503 168 2 -0.325600 16.648114 46.493222 28.300429
504 168 2 -0.325600 17.341242 43.222293 25.453003
505 169 1 0.651200 46.080762 40.248759 24.705374
506 169 2 -0.325600 44.954434 38.509393 25.431873
507 169 2 -0.325600 47.207090 41.988124 23.978874
508 170 1 0.651200 7.089736 11.161603 18.419519
509 170 2 -0.325600 8.306355 12.568759 17.252659
510 170 2 -0.325600 5.873117 9.754447 19.586378
511 171 1 0.651200 37.944727 41.274082 4.223215
512 171 2 -0.325600 36.431776 39.724917 4.587743
513 171 2 -0.325600 39.457677 42.823246 3.858686
514 172 1 0.651200 27.942312 47.508420 14.028671
515 172 2 -0.325600 25.825379 48.091819 14.035994
516 172 2 -0.325600 30.059244 46.925021 14.021348
517 173 1 0.651200 40.634081 41.629114 42.406919
518 173 2 -0.325600 41.250416 43.396376 43.555277
519 173 2 -0.325600 40.017747 39.861852 41.258561
520 174 1 0.651200 36.250708 17.637012 10.729270
521 174 2 -0.325600 36.237607 18.365922 12.800581
522 174 2 -0.325600 36.263808 16.908102 8.657960
523 175 1 0.651200 15.146226 29.931724 16.123658
524 175 2 -0.325600 16.568743 31.604149 16.088288
525 175 2 -0.325600 13.723708 28.259300 16.159028
526 176 1 0.651200 30.381725 14.161871 45.172507
527 176 2 -0.325600 30.911219 14.260455 47.301292
528 176 2 -0.325600 29.852232 14.063286 43.043721
529 177 1 0.651200 8.959007 19.915057 33.200818
530 177 2 -0.325600 10.778106 21.080565 32.808032
531 177 2 -0.325600 7.139908 18.749549 33.593603
532 178 1 0.651200 35.992590 25.506427 39.264285
533 178 2 -0.325600 36.293966 24.401971 37.390476
534 178 2 -0.325600 35.691214 26.610883 41.138094
535 179 1 0.651200 11.434621 26.266296 11.553777
536 179 2 -0.325600 9.723465 26.274723 12.929890
537 179 2 -0.325600 13.145776 26.257868 10.177665
538 180 1 0.651200 5.145241 32.845615 3.606562
539 180 2 -0.325600 4.791679 30.760105 3.017111
540 180 2 -0.325600 5.498803 34.931125 4.196013
541 181 1 0.651200 43.444687 8.062822 48.429409
542 181 2 -0.325600 42.807990 5.997962 48.038540
543 181 2 -0.325600 44.081385 10.127683 48.820277
544 182 1 0.651200 18.723651 33.357185 36.452378
545 182 2 -0.325600 17.622754 33.344086 34.552466
546 182 2 -0.325600 19.824547 33.370283 38.352290
547 183 1 0.651200 49.412099 21.678588 40.772857
548 183 2 -0.325600 48.763628 22.493590 42.706007
549 183 2 -0.325600 50.060570 20.863587 38.839707
550 184 1 0.651200 1.010860 17.333543 12.622370
551 184 2 -0.325600 0.640624 17.737072 10.495894
552 184 2 -0.325600 1.381096 16.930014 14.748846
553 185 1 0.651200 30.090253 23.866279 8.346461
554 185 2 -0.325600 32.187906 24.514773 8.379922
555 185 2 -0.325600 27.992601 23.217786 8.313000
556 186 1 0.651200 12.828336 38.510730 42.850233
557 186 2 -0.325600 13.652776 40.478856 42.331976
558 186 2 -0.325600 12.003895 36.542604 43.368489
559 187 1 0.651200 2.003223 37.489848 8.274923
560 187 2 -0.325600 1.439282 35.381552 8.517549
561 187 2 -0.325600 2.567164 39.598144 8.032296
562 188 1 0.651200 24.042447 1.979762 1.404735
563 188 2 -0.325600 22.370002 2.403291 2.763175
564 188 2 -0.325600 25.714892 1.556232 0.046295
565 189 1 0.651200 12.447902 43.661184 31.152108
566 189 2 -0.325600 11.936200 45.770488 31.484987
567 189 2 -0.325600 12.959603 41.551880 30.819229
568 190 1 0.651200 9.346581 8.316395 11.687994
569 190 2 -0.325600 11.538664 8.413633 11.603565
570 190 2 -0.325600 7.154498 8.219156 11.772422
571 191 1 0.651200 30.368948 8.439004 24.059289
572 191 2 -0.325600 29.654674 7.926559 22.047071
573 191 2 -0.325600 31.083222 8.951449 26.071507
574 192 1 0.651200 31.076301 2.251582 46.527476
575 192 2 -0.325600 31.282342 4.004403 45.220963
576 192 2 -0.325600 30.870261 0.498761 47.833989
577 193 1 0.651200 18.016479 30.136888 29.347590
578 193 2 -0.325600 16.194776 30.133717 28.121540
579 193 2 -0.325600 19.838182 30.140059 30.573640
580 194 1 0.651200 16.404758 24.144918 29.624297
581 194 2 -0.325600 15.484406 24.623265 31.559742
582 194 2 -0.325600 17.325111 23.666572 27.688853
583 195 1 0.651200 24.026307 6.651424 18.570294
584 195 2 -0.325600 23.558987 8.767262 18.214410
585 195 2 -0.325600 24.493627 4.535587 18.926178
586 196 1 0.651200 49.658079 8.722588 19.562097
587 196 2 -0.325600 50.052189 10.178118 17.965877
588 196 2 -0.325600 49.263969 7.267057 21.158317
589 197 1 0.651200 21.740343 12.307685 49.177771
590 197 2 -0.325600 20.473234 10.742300 48.302662
591 197 2 -0.325600 23.007452 13.873070 50.052879
592 198 1 0.651200 0.246862 45.121237 32.199077
593 198 2 -0.325600 0.000092 46.842272 30.857827
594 198 2 -0.325600 0.493633 43.400201 33.540327
595 199 1 0.651200 26.050665 19.550767 12.387028
596 199 2 -0.325600 27.362685 17.791428 12.458729
597 199 2 -0.325600 24.738645 21.310106 12.315327
598 200 1 0.651200 26.289178 22.337888 26.564996
599 200 2 -0.325600 25.144578 20.530886 27.061429
600 200 2 -0.325600 27.433777 24.144890 26.068562
601 201 1 0.651200 4.223924 29.183177 30.523756
602 201 2 -0.325600 6.418726 29.195780 30.590804
603 201 2 -0.325600 2.029122 29.170573 30.456707
604 202 1 0.651200 49.922475 9.458073 47.114305
605 202 2 -0.325600 49.791997 11.459803 46.221073
606 202 2 -0.325600 50.052954 7.456343 48.007537
607 203 1 0.651200 10.625169 30.603196 7.515040
608 203 2 -0.325600 10.160722 31.445641 9.488967
609 203 2 -0.325600 11.089616 29.760751 5.541114
610 204 1 0.651200 7.044252 46.758335 29.173493
611 204 2 -0.325600 8.031006 48.708524 28.961616
612 204 2 -0.325600 6.057498 44.808147 29.385370