LAMMPS Description

1875  atoms
 1250  bonds
 625  angles

 2  atom types
 1  bond types
 1  angle types


0.0 65.415 xlo xhi
0.0 65.415 ylo yhi
0.0 65.415 zlo zhi

Masses

  1 12.0107
  2 15.9994

Bond Coeffs

 1    2.196    0.45106005 -0.67297933 0.5857145

Angle Coeffs

  1    0.0861  180.000000

Atoms

1 1 1 0.651200 58.620691 45.486978 21.099609
2 1 2 -0.325600 57.686534 43.612756 20.438964
3 1 2 -0.325600 59.554848 47.361200 21.760254
4 2 1 0.651200 55.597098 37.426590 18.130457
5 2 2 -0.325600 57.611438 36.868631 18.803456
6 2 2 -0.325600 53.582758 37.984548 17.457457
7 3 1 0.651200 18.248637 10.827746 17.160955
8 3 2 -0.325600 19.776609 11.816689 15.932500
9 3 2 -0.325600 16.720664 9.838803 18.389410
10 4 1 0.651200 27.680363 65.419095 21.415079
11 4 2 -0.325600 25.539607 65.420085 20.926231
12 4 2 -0.325600 29.821119 65.418106 21.903928
13 5 1 0.651200 18.506686 63.967368 29.765591
14 5 2 -0.325600 18.122468 63.484315 27.658259
15 5 2 -0.325600 18.890903 64.450422 31.872923
16 6 1 0.651200 44.612413 43.150059 31.188981
17 6 2 -0.325600 45.409234 41.843963 32.764100
18 6 2 -0.325600 43.815592 44.456155 29.613862
19 7 1 0.651200 6.747615 4.838663 37.409182
20 7 2 -0.325600 7.273654 6.832330 38.164421
21 7 2 -0.325600 6.221576 2.844996 36.653943
22 8 1 0.651200 13.625936 27.615709 3.530521
23 8 2 -0.325600 15.691523 28.357253 3.457906
24 8 2 -0.325600 11.560349 26.874165 3.603136
25 9 1 0.651200 24.383450 22.221459 13.973664
26 9 2 -0.325600 24.936853 23.343410 12.169009
27 9 2 -0.325600 23.830047 21.099507 15.778319
28 10 1 0.651200 37.483105 58.676501 43.370185
29 10 2 -0.325600 35.945345 57.343165 42.545979
30 10 2 -0.325600 39.020866 60.009838 44.194390
31 11 1 0.651200 23.746034 60.729079 18.367945
32 11 2 -0.325600 24.667164 60.787758 16.375487
33 11 2 -0.325600 22.824905 60.670400 20.360402
34 12 1 0.651200 51.655136 23.358577 43.421928
35 12 2 -0.325600 52.368275 23.877479 45.432894
36 12 2 -0.325600 50.941997 22.839675 41.410962
37 13 1 0.651200 34.903545 27.907047 -0.000333
38 13 2 -0.325600 36.891235 26.973828 -0.000321
39 13 2 -0.325600 32.915855 28.840267 -0.000345
40 14 1 0.651200 56.579356 58.470453 13.604829
41 14 2 -0.325600 56.939544 59.392597 15.564860
42 14 2 -0.325600 56.219168 57.548309 11.644797
43 15 1 0.651200 25.968079 14.086864 16.625795
44 15 2 -0.325600 26.385737 16.241999 16.573208
45 15 2 -0.325600 25.550421 11.931730 16.678381
46 16 1 0.651200 35.251774 18.928030 18.035595
47 16 2 -0.325600 34.404685 17.225697 16.937273
48 16 2 -0.325600 36.098864 20.630364 19.133917
49 17 1 0.651200 42.111001 31.714866 41.592205
50 17 2 -0.325600 42.982055 30.084654 42.777737
51 17 2 -0.325600 41.239946 33.345077 40.406673
52 18 1 0.651200 15.510212 38.452832 1.155076
53 18 2 -0.325600 15.178161 36.283544 1.230868
54 18 2 -0.325600 15.842263 40.622119 1.079285
55 19 1 0.651200 58.055821 16.221999 35.253796
56 19 2 -0.325600 57.384462 16.588514 37.312134
57 19 2 -0.325600 58.727180 15.855483 33.195459
58 20 1 0.651200 53.824842 3.396148 32.531398
59 20 2 -0.325600 55.818570 3.465931 33.448998
60 20 2 -0.325600 51.831114 3.326365 31.613799
61 21 1 0.651200 22.238643 32.782224 54.271353
62 21 2 -0.325600 20.723736 34.350783 54.529215
63 21 2 -0.325600 23.753549 31.213666 54.013491
64 22 1 0.651200 22.099423 28.595791 12.209299
65 22 2 -0.325600 22.216205 29.616139 14.150191
66 22 2 -0.325600 21.982641 27.575442 10.268407
67 23 1 0.651200 33.777932 5.299667 47.887848
68 23 2 -0.325600 32.539291 3.990709 49.142522
69 23 2 -0.325600 35.016573 6.608625 46.633174
70 24 1 0.651200 28.202960 21.509674 34.746285
71 24 2 -0.325600 26.007552 21.529180 34.706102
72 24 2 -0.325600 30.398367 21.490168 34.786467
73 25 1 0.651200 62.688686 14.971536 6.298783
74 25 2 -0.325600 64.745691 15.383458 6.947521
75 25 2 -0.325600 60.631681 14.559614 5.650044
76 26 1 0.651200 35.561952 9.254793 32.280644
77 26 2 -0.325600 36.294010 7.950120 30.673245
78 26 2 -0.325600 34.829895 10.559465 33.888043
79 27 1 0.651200 46.975870 50.812742 59.184656
80 27 2 -0.325600 45.012718 51.188360 60.093918
81 27 2 -0.325600 48.939021 50.437124 58.275393
82 28 1 0.651200 9.094390 51.565544 41.621159
83 28 2 -0.325600 7.260992 50.384978 41.362849
84 28 2 -0.325600 10.927789 52.746109 41.879469
85 29 1 0.651200 48.985073 15.570422 32.526768
86 29 2 -0.325600 49.176299 16.980305 30.854204
87 29 2 -0.325600 48.793847 14.160540 34.199333
88 30 1 0.651200 60.985668 38.856618 54.583480
89 30 2 -0.325600 62.627508 38.999646 56.034589
90 30 2 -0.325600 59.343829 38.713590 53.132371
91 31 1 0.651200 5.368417 34.782246 17.212674
92 31 2 -0.325600 5.806869 33.184834 15.771201
93 31 2 -0.325600 4.929964 36.379658 18.654147
94 32 1 0.651200 16.040518 24.660490 27.829121
95 32 2 -0.325600 15.626286 22.915655 29.096313
96 32 2 -0.325600 16.454749 26.405324 26.561929
97 33 1 0.651200 53.285336 54.093592 6.975643
98 33 2 -0.325600 53.682864 51.962284 6.627349
99 33 2 -0.325600 52.887809 56.224900 7.323937
100 34 1 0.651200 31.293848 65.425735 47.926379
101 34 2 -0.325600 32.962462 65.432744 46.498973
102 34 2 -0.325600 29.625234 65.418726 49.353786
103 35 1 0.651200 34.887628 23.739540 37.206709
104 35 2 -0.325600 36.105611 21.936537 37.502521
105 35 2 -0.325600 33.669645 25.542544 36.910897
106 36 1 0.651200 7.743369 38.108179 62.127214
107 36 2 -0.325600 7.486981 38.523491 64.268146
108 36 2 -0.325600 7.999758 37.692867 59.986281
109 37 1 0.651200 56.897804 43.490342 26.838056
110 37 2 -0.325600 58.307201 45.163116 26.645088
111 37 2 -0.325600 55.488407 41.817569 27.031025
112 38 1 0.651200 64.176618 45.755981 61.781149
113 38 2 -0.325600 62.936395 43.979288 61.424750
114 38 2 -0.325600 65.416840 47.532673 62.137548
115 39 1 0.651200 26.533400 12.690311 41.840958
116 39 2 -0.325600 26.604958 14.130211 43.497273
117 39 2 -0.325600 26.461842 11.250411 40.184644
118 40 1 0.651200 14.154886 24.614115 34.357108
119 40 2 -0.325600 14.726087 22.500106 34.519913
120 40 2 -0.325600 13.583686 26.728124 34.194303
121 41 1 0.651200 39.092102 58.662079 60.002538
122 41 2 -0.325600 38.286540 60.686363 60.276676
123 41 2 -0.325600 39.897665 56.637794 59.728400
124 42 1 0.651200 33.164090 29.693218 24.595775
125 42 2 -0.325600 33.827498 29.708652 22.502582
126 42 2 -0.325600 32.500681 29.677784 26.688969
127 43 1 0.651200 33.270612 24.455375 63.273151
128 43 2 -0.325600 34.769586 25.975304 63.787644
129 43 2 -0.325600 31.771638 22.935446 62.758658
130 44 1 0.651200 62.204276 2.475359 15.955868
131 44 2 -0.325600 63.753644 1.585637 14.679284
132 44 2 -0.325600 60.654909 3.365080 17.232451
133 45 1 0.651200 36.942675 10.602931 14.360325
134 45 2 -0.325600 37.260384 9.068723 12.821794
135 45 2 -0.325600 36.624966 12.137139 15.898856
136 46 1 0.651200 48.731157 38.213853 22.760218
137 46 2 -0.325600 47.908683 39.136389 20.945205
138 46 2 -0.325600 49.553631 37.291316 24.575232
139 47 1 0.651200 12.743062 11.049922 43.358528
140 47 2 -0.325600 10.847373 10.132912 42.736220
141 47 2 -0.325600 14.638751 11.966931 43.980836
142 48 1 0.651200 9.222753 64.387472 51.159698
143 48 2 -0.325600 7.283277 63.360184 51.089541
144 48 2 -0.325600 11.162230 65.414759 51.229856
145 49 1 0.651200 33.002717 44.845602 42.415398
146 49 2 -0.325600 32.715516 42.671787 42.297703
147 49 2 -0.325600 33.289918 47.019418 42.533094
148 50 1 0.651200 2.692921 12.110132 28.547870
149 50 2 -0.325600 3.180210 14.249048 28.644820
150 50 2 -0.325600 2.205631 9.971217 28.450921
151 51 1 0.651200 63.274759 24.988865 25.302186
152 51 2 -0.325600 61.469670 23.745337 25.432962
153 51 2 -0.325600 65.079847 26.232394 25.171409
154 52 1 0.651200 14.928519 44.190102 27.979006
155 52 2 -0.325600 13.215551 44.792283 26.744126
156 52 2 -0.325600 16.641486 43.587920 29.213887
157 53 1 0.651200 48.716122 18.149196 24.622727
158 53 2 -0.325600 50.822769 18.614900 24.214109
159 53 2 -0.325600 46.609475 17.683491 25.031346
160 54 1 0.651200 10.825714 25.909993 26.609434
161 54 2 -0.325600 10.392241 25.002964 28.561666
162 54 2 -0.325600 11.259187 26.817023 24.657202
163 55 1 0.651200 27.561607 46.459215 22.835047
164 55 2 -0.325600 25.800423 45.695304 21.768988
165 55 2 -0.325600 29.322790 47.223125 23.901107
166 56 1 0.651200 11.344764 56.628473 12.148034
167 56 2 -0.325600 13.486659 57.001212 11.839551
168 56 2 -0.325600 9.202869 56.255734 12.456517
169 57 1 0.651200 1.690887 14.875350 60.081070
170 57 2 -0.325600 3.296091 14.904354 61.579165
171 57 2 -0.325600 0.085684 14.846345 58.582974
172 58 1 0.651200 15.628913 48.252724 59.267098
173 58 2 -0.325600 14.603124 46.361060 59.704332
174 58 2 -0.325600 16.654703 50.144387 58.829864
175 59 1 0.651200 2.960445 8.617185 60.088007
176 59 2 -0.325600 3.397191 8.826055 62.229837
177 59 2 -0.325600 2.523698 8.408314 57.946177
178 60 1 0.651200 13.679205 51.831501 27.359818
179 60 2 -0.325600 13.504137 50.437206 29.047154
180 60 2 -0.325600 13.854274 53.225795 25.672482
181 61 1 0.651200 46.241545 51.020600 0.348279
182 61 2 -0.325600 45.037510 52.823600 -0.000000
183 61 2 -0.325600 47.445580 49.217599 0.696558
184 62 1 0.651200 18.971065 18.167454 16.605404
185 62 2 -0.325600 17.401303 19.334327 15.607374
186 62 2 -0.325600 20.540828 17.000581 17.603433
187 63 1 0.651200 42.724908 5.698382 29.046378
188 63 2 -0.325600 44.080668 4.733002 30.478776
189 63 2 -0.325600 41.369148 6.663763 27.613979
190 64 1 0.651200 2.130419 7.787499 22.898891
191 64 2 -0.325600 4.287396 8.162649 22.730004
192 64 2 -0.325600 -0.026558 7.412349 23.067777
193 65 1 0.651200 49.212764 32.650433 12.733556
194 65 2 -0.325600 49.686679 31.362838 11.019114
195 65 2 -0.325600 48.738849 33.938028 14.447999
196 66 1 0.651200 61.554363 20.211063 42.451045
197 66 2 -0.325600 59.608896 20.124473 41.436417
198 66 2 -0.325600 63.499830 20.297653 43.465673
199 67 1 0.651200 24.175686 44.452859 31.483251
200 67 2 -0.325600 24.124886 46.624572 31.804024
201 67 2 -0.325600 24.226486 42.281147 31.162478
202 68 1 0.651200 6.550224 1.985410 60.408795
203 68 2 -0.325600 4.979044 3.494713 60.134552
204 68 2 -0.325600 8.121404 0.476107 60.683038
205 69 1 0.651200 55.628306 7.426254 57.338713
206 69 2 -0.325600 54.370488 8.309844 58.906824
207 69 2 -0.325600 56.886124 6.542664 55.770602
208 70 1 0.651200 47.128528 58.894192 15.032323
209 70 2 -0.325600 46.803235 56.723736 15.103840
210 70 2 -0.325600 47.453821 61.064648 14.960807
211 71 1 0.651200 55.504145 56.597563 60.739970
212 71 2 -0.325600 55.639177 58.289734 62.132856
213 71 2 -0.325600 55.369112 54.905392 59.347083
214 72 1 0.651200 48.682787 53.069462 20.852493
215 72 2 -0.325600 46.774442 54.142983 21.018576
216 72 2 -0.325600 50.591132 51.995942 20.686411
217 73 1 0.651200 46.659836 50.408860 42.277235
218 73 2 -0.325600 48.688134 51.247967 42.338186
219 73 2 -0.325600 44.631537 49.569754 42.216284
220 74 1 0.651200 3.693168 10.331826 41.470188
221 74 2 -0.325600 5.632904 11.360760 41.493248
222 74 2 -0.325600 1.753433 9.302893 41.447129
223 75 1 0.651200 36.765881 32.430906 36.354499
224 75 2 -0.325600 38.302243 33.894130 35.788479
225 75 2 -0.325600 35.229519 30.967682 36.920518
226 76 1 0.651200 44.928187 30.090154 30.385613
227 76 2 -0.325600 46.782552 30.577817 29.315416
228 76 2 -0.325600 43.073821 29.602492 31.455811
229 77 1 0.651200 62.301371 6.102927 29.507992
230 77 2 -0.325600 64.457803 6.443305 29.744112
231 77 2 -0.325600 60.144938 5.762548 29.271872
232 78 1 0.651200 17.320686 40.166238 10.455270
233 78 2 -0.325600 17.091821 40.289853 12.635671
234 78 2 -0.325600 17.549552 40.042622 8.274868
235 79 1 0.651200 35.986542 52.887561 51.287014
236 79 2 -0.325600 34.370204 54.373569 51.319324
237 79 2 -0.325600 37.602879 51.401553 51.254704
238 80 1 0.651200 56.743512 20.433226 2.130084
239 80 2 -0.325600 58.064061 22.026787 1.396242
240 80 2 -0.325600 55.422963 18.839665 2.863926
241 81 1 0.651200 35.885095 59.799841 54.637498
242 81 2 -0.325600 37.945477 60.542907 54.793997
243 81 2 -0.325600 33.824714 59.056775 54.480999
244 82 1 0.651200 48.580390 51.205490 26.807779
245 82 2 -0.325600 47.183476 50.056750 25.562453
246 82 2 -0.325600 49.977304 52.354230 28.053105
247 83 1 0.651200 11.380244 0.898701 41.030220
248 83 2 -0.325600 13.147056 1.345969 39.805418
249 83 2 -0.325600 9.613433 0.451434 42.255021
250 84 1 0.651200 10.343014 18.042401 32.306487
251 84 2 -0.325600 10.381646 16.052394 33.233952
252 84 2 -0.325600 10.304382 20.032407 31.379022
253 85 1 0.651200 15.034571 6.177037 28.205629
254 85 2 -0.325600 13.880114 4.669655 29.308733
255 85 2 -0.325600 16.189028 7.684419 27.102525
256 86 1 0.651200 36.506459 13.281876 49.570800
257 86 2 -0.325600 36.024933 15.238525 50.443421
258 86 2 -0.325600 36.987985 11.325228 48.698178
259 87 1 0.651200 57.835794 65.139227 14.427499
260 87 2 -0.325600 59.881730 65.414992 15.175771
261 87 2 -0.325600 55.789859 64.863461 13.679227
262 88 1 0.651200 5.763052 54.696130 3.235405
263 88 2 -0.325600 5.152455 55.445248 1.263653
264 88 2 -0.325600 6.373648 53.947012 5.207156
265 89 1 0.651200 30.402247 42.158971 26.749760
266 89 2 -0.325600 28.495097 42.830396 27.606367
267 89 2 -0.325600 32.309398 41.487546 25.893153
268 90 1 0.651200 3.002020 38.581656 13.173797
269 90 2 -0.325600 1.923010 36.669331 13.150176
270 90 2 -0.325600 4.081030 40.493982 13.197418
271 91 1 0.651200 41.047993 43.338276 12.504021
272 91 2 -0.325600 40.772427 41.279387 11.792087
273 91 2 -0.325600 41.323559 45.397165 13.215955
274 92 1 0.651200 39.168986 38.128446 62.203004
275 92 2 -0.325600 40.666195 39.004384 60.856561
276 92 2 -0.325600 37.671777 37.252508 63.549447
277 93 1 0.651200 13.342220 15.749774 21.432580
278 93 2 -0.325600 13.114857 17.828848 22.101584
279 93 2 -0.325600 13.569583 13.670699 20.763576
280 94 1 0.651200 23.409378 32.169456 59.980658
281 94 2 -0.325600 22.832567 30.127770 59.414427
282 94 2 -0.325600 23.986189 34.211141 60.546889
283 95 1 0.651200 25.616530 49.880691 49.878981
284 95 2 -0.325600 27.446374 49.087110 48.960443
285 95 2 -0.325600 23.786687 50.674273 50.797518
286 96 1 0.651200 9.248711 3.263668 0.454215
287 96 2 -0.325600 7.897423 1.593580 0.908790
288 96 2 -0.325600 10.599999 4.933756 -0.000359
289 97 1 0.651200 12.529685 6.246163 36.627948
290 97 2 -0.325600 13.389158 7.400042 38.286767
291 97 2 -0.325600 11.670212 5.092283 34.969130
292 98 1 0.651200 56.587983 39.089745 41.684458
293 98 2 -0.325600 54.667228 38.082553 42.028073
294 98 2 -0.325600 58.508739 40.096938 41.340843
295 99 1 0.651200 39.586251 59.255366 65.443501
296 99 2 -0.325600 37.399061 59.060681 65.453859
297 99 2 -0.325600 41.773441 59.450051 65.433143
298 100 1 0.651200 22.695871 0.857424 46.150045
299 100 2 -0.325600 20.675490 1.716719 46.111547
300 100 2 -0.325600 24.716252 -0.001872 46.188543
301 101 1 0.651200 11.631441 9.523532 52.160761
302 101 2 -0.325600 10.514547 9.344473 54.042860
303 101 2 -0.325600 12.748335 9.702591 50.278663
304 102 1 0.651200 14.267570 15.181281 28.719072
305 102 2 -0.325600 12.324788 15.475329 27.738794
306 102 2 -0.325600 16.210352 14.887233 29.699350
307 103 1 0.651200 52.131737 38.280664 30.193674
308 103 2 -0.325600 53.936200 37.081564 29.836071
309 103 2 -0.325600 50.327274 39.479765 30.551278
310 104 1 0.651200 37.344548 60.784845 16.823990
311 104 2 -0.325600 37.406953 62.970959 17.021023
312 104 2 -0.325600 37.282143 58.598731 16.626957
313 105 1 0.651200 52.917362 31.066022 42.772795
314 105 2 -0.325600 51.335714 29.563697 42.521359
315 105 2 -0.325600 54.499009 32.568347 43.024231
316 106 1 0.651200 52.412090 9.543681 45.946209
317 106 2 -0.325600 54.513707 9.955912 45.461357
318 106 2 -0.325600 50.310473 9.131450 46.431060
319 107 1 0.651200 52.975440 12.346996 40.743531
320 107 2 -0.325600 54.337628 14.023194 41.139276
321 107 2 -0.325600 51.613253 10.670798 40.347787
322 108 1 0.651200 25.148907 1.507070 39.294641
323 108 2 -0.325600 27.148322 2.411314 39.375218
324 108 2 -0.325600 23.149493 0.602825 39.214064
325 109 1 0.651200 5.795701 55.281196 45.110520
326 109 2 -0.325600 6.568691 57.189946 44.348305
327 109 2 -0.325600 5.022712 53.372446 45.872734
328 110 1 0.651200 2.108665 24.625812 59.987497
329 110 2 -0.325600 3.612383 25.856445 61.010328
330 110 2 -0.325600 0.604947 23.395179 58.964665
331 111 1 0.651200 9.135560 27.853350 15.007026
332 111 2 -0.325600 11.050049 28.808490 14.512808
333 111 2 -0.325600 7.221072 26.898210 15.501243
334 112 1 0.651200 58.556861 20.495526 28.780281
335 112 2 -0.325600 59.533134 18.554719 28.460953
336 112 2 -0.325600 57.580588 22.436332 29.099609
337 113 1 0.651200 36.151327 16.956941 32.081265
338 113 2 -0.325600 35.136477 18.279240 33.510745
339 113 2 -0.325600 37.166177 15.634642 30.651784
340 114 1 0.651200 39.891134 4.547723 34.558467
341 114 2 -0.325600 40.021335 2.487733 33.809267
342 114 2 -0.325600 39.760932 6.607712 35.307667
343 115 1 0.651200 28.217277 58.848126 12.307156
344 115 2 -0.325600 30.040050 58.262631 13.382565
345 115 2 -0.325600 26.394504 59.433621 11.231748
346 116 1 0.651200 6.095771 42.027392 50.887740
347 116 2 -0.325600 4.875948 40.201546 50.876596
348 116 2 -0.325600 7.315595 43.853239 50.898884
349 117 1 0.651200 30.179562 60.936431 44.955896
350 117 2 -0.325600 32.157774 60.103368 45.419030
351 117 2 -0.325600 28.201350 61.769494 44.492763
352 118 1 0.651200 45.274521 43.957150 58.638374
353 118 2 -0.325600 44.748201 42.677326 60.343321
354 118 2 -0.325600 45.800840 45.236974 56.933426
355 119 1 0.651200 20.884275 1.001651 58.186629
356 119 2 -0.325600 22.343042 0.014343 59.497748
357 119 2 -0.325600 19.425509 1.988959 56.875510
358 120 1 0.651200 42.730414 45.908871 23.902877
359 120 2 -0.325600 41.589068 47.781047 23.784137
360 120 2 -0.325600 43.871760 44.036696 24.021616
361 121 1 0.651200 0.585300 34.785352 26.555578
362 121 2 -0.325600 1.170600 32.701342 26.924545
363 121 2 -0.325600 0.000001 36.869362 26.186611
364 122 1 0.651200 23.561916 9.240599 45.019726
365 122 2 -0.325600 24.870502 7.485442 45.189547
366 122 2 -0.325600 22.253330 10.995756 44.849906
367 123 1 0.651200 17.119803 56.367984 45.463820
368 123 2 -0.325600 18.651893 57.239407 46.773450
369 123 2 -0.325600 15.587712 55.496560 44.154191
370 124 1 0.651200 14.174017 40.038185 45.249043
371 124 2 -0.325600 15.990250 41.266787 45.132222
372 124 2 -0.325600 12.357784 38.809584 45.365864
373 125 1 0.651200 60.198152 27.928851 30.818684
374 125 2 -0.325600 60.177927 26.193339 32.163823
375 125 2 -0.325600 60.218378 29.664363 29.473545
376 126 1 0.651200 30.954003 16.998795 22.799901
377 126 2 -0.325600 29.979258 15.154018 22.115446
378 126 2 -0.325600 31.928748 18.843572 23.484356
379 127 1 0.651200 13.969222 -0.015330 45.795421
380 127 2 -0.325600 15.720543 -0.015401 44.470777
381 127 2 -0.325600 12.217900 -0.015260 47.120066
382 128 1 0.651200 54.747172 46.637976 31.125151
383 128 2 -0.325600 55.715336 48.588284 30.840955
384 128 2 -0.325600 53.779008 44.687668 31.409346
385 129 1 0.651200 55.263799 17.464377 50.512179
386 129 2 -0.325600 53.669867 18.775552 51.261854
387 129 2 -0.325600 56.857730 16.153202 49.762504
388 130 1 0.651200 46.806412 23.610041 31.060890
389 130 2 -0.325600 45.752477 21.696240 30.840897
390 130 2 -0.325600 47.860346 25.523842 31.280883
391 131 1 0.651200 63.066649 51.030901 40.689398
392 131 2 -0.325600 62.213826 52.969829 41.268242
393 131 2 -0.325600 63.919471 49.091972 40.110554
394 132 1 0.651200 3.517878 22.763537 5.821845
395 132 2 -0.325600 2.565558 21.395852 4.392042
396 132 2 -0.325600 4.470198 24.131222 7.251647
397 133 1 0.651200 45.690153 21.785856 46.460401
398 133 2 -0.325600 46.150533 19.659696 46.759242
399 133 2 -0.325600 45.229773 23.912015 46.161560
400 134 1 0.651200 17.180692 30.422507 37.987098
401 134 2 -0.325600 17.500012 28.692002 39.300565
402 134 2 -0.325600 16.861372 32.153012 36.673630
403 135 1 0.651200 9.031888 58.005320 62.998599
404 135 2 -0.325600 10.207549 57.424062 64.759783
405 135 2 -0.325600 7.856226 58.586578 61.237415
406 136 1 0.651200 58.968164 57.612980 1.591539
407 136 2 -0.325600 60.462930 57.846403 -0.000000
408 136 2 -0.325600 57.473398 57.379556 3.183078
409 137 1 0.651200 8.318080 16.937417 7.247580
410 137 2 -0.325600 6.355316 17.919680 7.314846
411 137 2 -0.325600 10.280845 15.955154 7.180315
412 138 1 0.651200 30.333349 3.437917 43.753650
413 138 2 -0.325600 30.859883 5.192610 42.543019
414 138 2 -0.325600 29.806816 1.683225 44.964280
415 139 1 0.651200 5.562107 17.829656 40.993503
416 139 2 -0.325600 6.723505 17.864215 39.130234
417 139 2 -0.325600 4.400710 17.795096 42.856772
418 140 1 0.651200 2.436702 54.837840 62.980178
419 140 2 -0.325600 3.384843 55.277888 61.049066
420 140 2 -0.325600 1.488560 54.397793 64.911291
421 141 1 0.651200 54.950034 16.026938 26.768423
422 141 2 -0.325600 55.867328 16.512651 24.833361
423 141 2 -0.325600 54.032740 15.541224 28.703484
424 142 1 0.651200 17.171792 5.228458 22.279498
425 142 2 -0.325600 15.114214 5.941713 21.997630
426 142 2 -0.325600 19.229370 4.515203 22.561367
427 143 1 0.651200 3.037496 62.804553 43.496489
428 143 2 -0.325600 0.860447 62.671731 43.242267
429 143 2 -0.325600 5.214544 62.937374 43.750711
430 144 1 0.651200 24.222829 22.809129 42.585455
431 144 2 -0.325600 22.730461 21.746959 41.374489
432 144 2 -0.325600 25.715197 23.871300 43.796422
433 145 1 0.651200 31.722028 42.799724 47.705578
434 145 2 -0.325600 33.895512 42.894357 48.003605
435 145 2 -0.325600 29.548543 42.705092 47.407551
436 146 1 0.651200 11.012763 18.105090 44.905694
437 146 2 -0.325600 10.497208 15.994672 45.225299
438 146 2 -0.325600 11.528318 20.215509 44.586090
439 147 1 0.651200 8.452990 55.059927 22.563134
440 147 2 -0.325600 9.577890 56.909913 22.929144
441 147 2 -0.325600 7.328091 53.209942 22.197124
442 148 1 0.651200 45.394495 52.909306 31.699434
443 148 2 -0.325600 46.496646 54.801505 31.536163
444 148 2 -0.325600 44.292345 51.017107 31.862705
445 149 1 0.651200 5.790840 31.034925 42.331120
446 149 2 -0.325600 6.775739 29.099654 42.004760
447 149 2 -0.325600 4.805942 32.970196 42.657480
448 150 1 0.651200 18.991167 48.407271 20.654514
449 150 2 -0.325600 20.348170 46.739653 20.207967
450 150 2 -0.325600 17.634164 50.074889 21.101061
451 151 1 0.651200 19.688411 20.377009 33.339369
452 151 2 -0.325600 20.465913 21.469163 35.078479
453 151 2 -0.325600 18.910909 19.284855 31.600260
454 152 1 0.651200 -0.000010 56.913490 56.507153
455 152 2 -0.325600 -0.000024 54.730953 56.748689
456 152 2 -0.325600 0.000003 59.096028 56.265616
457 153 1 0.651200 12.190751 21.773199 8.744793
458 153 2 -0.325600 14.278340 21.348351 8.212549
459 153 2 -0.325600 10.103161 22.198047 9.277037
460 154 1 0.651200 34.227644 35.264050 2.550758
461 154 2 -0.325600 34.861807 36.558000 0.893851
462 154 2 -0.325600 33.593481 33.970100 4.207665
463 155 1 0.651200 46.579406 17.168615 41.392786
464 155 2 -0.325600 45.063693 16.123177 42.589231
465 155 2 -0.325600 48.095120 18.214054 40.196341
466 156 1 0.651200 44.045761 1.776219 23.875384
467 156 2 -0.325600 46.041877 2.638015 23.567750
468 156 2 -0.325600 42.049645 0.914423 24.183019
469 157 1 0.651200 51.527545 32.522160 19.120959
470 157 2 -0.325600 50.179773 33.306857 20.666783
471 157 2 -0.325600 52.875318 31.737464 17.575135
472 158 1 0.651200 37.853234 52.056160 33.634785
473 158 2 -0.325600 38.899723 50.487036 34.759293
474 158 2 -0.325600 36.806745 53.625285 32.510277
475 159 1 0.651200 54.365456 11.216422 33.250950
476 159 2 -0.325600 54.488432 11.946448 35.318255
477 159 2 -0.325600 54.242480 10.486396 31.183645
478 160 1 0.651200 11.623242 25.337421 61.031943
479 160 2 -0.325600 10.006028 25.606599 59.571130
480 160 2 -0.325600 13.240455 25.068243 62.492756
481 161 1 0.651200 27.784553 58.496861 58.861690
482 161 2 -0.325600 28.645145 56.477390 58.807592
483 161 2 -0.325600 26.923961 60.516332 58.915789
484 162 1 0.651200 28.659644 65.380439 63.955383
485 162 2 -0.325600 26.506722 65.414999 63.524638
486 162 2 -0.325600 30.812567 65.345880 64.386128
487 163 1 0.651200 25.253409 17.118448 38.472912
488 163 2 -0.325600 23.773252 15.759563 37.587261
489 163 2 -0.325600 26.733567 18.477332 39.358563
490 164 1 0.651200 24.370202 27.223132 64.689542
491 164 2 -0.325600 25.113059 25.288272 63.964084
492 164 2 -0.325600 23.627345 29.157993 65.415000
493 165 1 0.651200 29.325103 22.311250 19.936460
494 165 2 -0.325600 29.587734 23.511521 21.756401
495 165 2 -0.325600 29.062471 21.110980 18.116519
496 166 1 0.651200 33.785084 32.359206 9.956486
497 166 2 -0.325600 33.813172 30.170441 10.130636
498 166 2 -0.325600 33.756995 34.547972 9.782336
499 167 1 0.651200 37.566265 22.858984 24.146236
500 167 2 -0.325600 36.124737 21.818731 25.435297
501 167 2 -0.325600 39.007794 23.899237 22.857174
502 168 1 0.651200 55.925927 56.713404 33.733924
503 168 2 -0.325600 55.380836 55.978028 35.729897
504 168 2 -0.325600 56.471019 57.448779 31.737951
505 169 1 0.651200 39.421761 4.639352 60.436792
506 169 2 -0.325600 38.972985 2.814488 61.572696
507 169 2 -0.325600 39.870537 6.464217 59.300888
508 170 1 0.651200 49.040932 49.847230 52.361853
509 170 2 -0.325600 46.862247 49.597690 52.248409
510 170 2 -0.325600 51.219618 50.096771 52.475298
511 171 1 0.651200 25.360917 15.809332 31.988180
512 171 2 -0.325600 26.600661 14.084447 32.544612
513 171 2 -0.325600 24.121172 17.534216 31.431748
514 172 1 0.651200 32.577179 5.228894 2.269453
515 172 2 -0.325600 30.883095 4.486558 3.453018
516 172 2 -0.325600 34.271263 5.971229 1.085888
517 173 1 0.651200 30.074355 35.161110 25.193407
518 173 2 -0.325600 28.959005 35.317226 23.308351
519 173 2 -0.325600 31.189705 35.004993 27.078462
520 174 1 0.651200 12.444551 62.295286 19.574494
521 174 2 -0.325600 14.545555 62.606132 20.132139
522 174 2 -0.325600 10.343548 61.984439 19.016848
523 175 1 0.651200 52.913782 28.862731 54.629234
524 175 2 -0.325600 52.124707 29.930616 56.378174
525 175 2 -0.325600 53.702858 27.794845 52.880294
526 176 1 0.651200 21.897767 62.555451 64.435966
527 176 2 -0.325600 22.366529 60.646639 63.456931
528 176 2 -0.325600 21.429005 64.464264 65.415000
529 177 1 0.651200 42.596188 47.022971 7.106703
530 177 2 -0.325600 40.590959 46.613408 7.902394
531 177 2 -0.325600 44.601418 47.432534 6.311013
532 178 1 0.651200 57.591429 11.542803 12.721132
533 178 2 -0.325600 57.307940 9.463361 12.075092
534 178 2 -0.325600 57.874918 13.622244 13.367172
535 179 1 0.651200 53.331904 23.503196 24.455539
536 179 2 -0.325600 54.614914 23.116920 22.715859
537 179 2 -0.325600 52.048894 23.889472 26.195218
538 180 1 0.651200 50.231716 20.921471 0.383291
539 180 2 -0.325600 49.735937 23.026014 0.766581
540 180 2 -0.325600 50.727495 18.816928 0.000000
541 181 1 0.651200 50.116256 39.412472 59.257261
542 181 2 -0.325600 50.010632 37.341223 58.535748
543 181 2 -0.325600 50.221880 41.483721 59.978774
544 182 1 0.651200 14.419373 5.321305 47.042567
545 182 2 -0.325600 12.625866 6.149383 46.083697
546 182 2 -0.325600 16.212879 4.493227 48.001437
547 183 1 0.651200 44.208943 1.913066 17.020977
548 183 2 -0.325600 45.516700 3.669706 16.860354
549 183 2 -0.325600 42.901186 0.156427 17.181600
550 184 1 0.651200 13.842721 2.976459 52.867259
551 184 2 -0.325600 12.031835 1.883054 52.278220
552 184 2 -0.325600 15.653607 4.069864 53.456299
553 185 1 0.651200 40.280648 65.439377 44.224969
554 185 2 -0.325600 42.262670 65.465671 43.280136
555 185 2 -0.325600 38.298627 65.413083 45.169802
556 186 1 0.651200 27.044578 15.315244 54.772810
557 186 2 -0.325600 24.868163 15.214093 55.046301
558 186 2 -0.325600 29.220993 15.416396 54.499320
559 187 1 0.651200 40.311345 9.702122 3.884225
560 187 2 -0.325600 38.752736 10.602397 2.626428
561 187 2 -0.325600 41.869955 8.801847 5.142021
562 188 1 0.651200 20.707559 26.675573 32.767069
563 188 2 -0.325600 19.193350 26.820324 34.350745
564 188 2 -0.325600 22.221769 26.530823 31.183394
565 189 1 0.651200 61.671152 48.957344 57.732744
566 189 2 -0.325600 62.767890 50.842211 57.990136
567 189 2 -0.325600 60.574413 47.072477 57.475351
568 190 1 0.651200 8.251210 10.953550 34.362615
569 190 2 -0.325600 8.108123 11.974386 36.301489
570 190 2 -0.325600 8.394296 9.932714 32.423742
571 191 1 0.651200 59.576270 12.078342 45.121049
572 191 2 -0.325600 59.125460 14.141561 44.519625
573 191 2 -0.325600 60.027080 10.015124 45.722473
574 192 1 0.651200 63.511828 60.520040 7.779043
575 192 2 -0.325600 61.607910 59.447421 7.994439
576 192 2 -0.325600 65.415746 61.592659 7.563647
577 193 1 0.651200 7.373707 40.489998 2.734257
578 193 2 -0.325600 5.499888 41.494254 3.283878
579 193 2 -0.325600 9.247525 39.485742 2.184635
580 194 1 0.651200 16.335451 30.503237 58.729475
581 194 2 -0.325600 15.995431 32.517773 59.534361
582 194 2 -0.325600 16.675470 28.488701 57.924590
583 195 1 0.651200 8.793645 40.473769 8.095506
584 195 2 -0.325600 10.598100 39.356756 7.531561
585 195 2 -0.325600 6.989189 41.590781 8.659451
586 196 1 0.651200 53.785877 21.041772 32.828626
587 196 2 -0.325600 55.017938 20.763551 34.624852
588 196 2 -0.325600 52.553816 21.319992 31.032400
589 197 1 0.651200 26.049629 5.718525 56.371850
590 197 2 -0.325600 25.436274 3.616327 56.534236
591 197 2 -0.325600 26.662984 7.820723 56.209465
592 198 1 0.651200 20.622208 56.711662 56.025052
593 198 2 -0.325600 21.013462 58.239198 57.553242
594 198 2 -0.325600 20.230954 55.184125 54.496863
595 199 1 0.651200 52.403013 57.766074 20.011994
596 199 2 -0.325600 51.632967 57.699473 17.956659
597 199 2 -0.325600 53.173060 57.832676 22.067329
598 200 1 0.651200 14.933112 33.306423 6.173208
599 200 2 -0.325600 12.792535 33.236308 6.657791
600 200 2 -0.325600 17.073690 33.376539 5.688624
601 201 1 0.651200 17.841101 11.578136 55.766264
602 201 2 -0.325600 16.707984 11.085243 53.951074
603 201 2 -0.325600 18.974217 12.071030 57.581454
604 202 1 0.651200 23.676737 17.729667 10.116695
605 202 2 -0.325600 22.010011 16.887710 11.272092
606 202 2 -0.325600 25.343464 18.571624 8.961298
607 203 1 0.651200 14.948767 56.734670 17.662758
608 203 2 -0.325600 15.849767 58.469122 16.661916
609 203 2 -0.325600 14.047767 55.000219 18.663601
610 204 1 0.651200 62.953111 33.328259 32.586624
611 204 2 -0.325600 61.182665 34.560241 32.998392