650
# CELL(abcABC):   75.58904    75.58904    75.58904    90.00000    90.00000    90.00000  Step:        1000  Bead:       0 x_centroid{angstrom}  cell{atomic_unit}
       C  6.25773e+00  1.34368e+01  2.34752e+01
       O  7.40770e+00  1.36057e+01  2.34392e+01
       O  5.10780e+00  1.32717e+01  2.35059e+01
       C  7.44635e+00  4.02045e+01  3.44863e+01
       O  6.32876e+00  3.99306e+01  3.46530e+01
       O  8.56468e+00  4.04799e+01  3.43301e+01
       C  3.78800e+01  2.59702e+01  8.94054e+00
       O  3.68400e+01  2.55156e+01  8.68665e+00
       O  3.89179e+01  2.64309e+01  9.18643e+00
       C  3.41418e+01  1.32447e+01  3.19297e+01
       O  3.32412e+01  1.39797e+01  3.19292e+01
       O  3.50422e+01  1.25094e+01  3.19415e+01
       C  6.79078e+00  3.32684e+01  1.11308e+01
       O  7.33720e+00  3.25368e+01  1.18513e+01
       O  6.25705e+00  3.40000e+01  1.04026e+01
       C  5.33983e+00  1.68133e+01  3.67723e+01
       O  6.33127e+00  1.68041e+01  3.61657e+01
       O  4.34601e+00  1.68254e+01  3.73760e+01
       C  2.48751e+00  8.79579e+00  3.92074e+00
       O  2.39913e+00  7.69878e+00  3.54811e+00
       O  2.57318e+00  9.89234e+00  4.29788e+00
       C  2.23331e+01  3.69756e+01  3.19252e+01
       O  2.19397e+01  3.58816e+01  3.19426e+01
       O  2.27209e+01  3.80714e+01  3.19124e+01
       C  3.63242e+01  1.60247e+01  3.34315e+01
       O  3.62332e+01  1.55197e+01  3.23879e+01
       O  3.64161e+01  1.65245e+01  3.44770e+01
       C  3.09484e+00  8.83834e+00  1.72941e+01
       O  3.41876e+00  8.69557e+00  1.61870e+01
       O  2.76905e+00  8.98595e+00  1.84002e+01
       C  1.89249e+01  3.47646e+01  1.26156e+01
       O  1.78924e+01  3.42494e+01  1.24749e+01
       O  1.99566e+01  3.52797e+01  1.27629e+01
       C  2.78224e+01  2.68400e+01  2.43846e+01
       O  2.73885e+01  2.63094e+01  2.53233e+01
       O  2.82589e+01  2.73761e+01  2.34499e+01
       C  3.06001e+01  4.13815e+01  6.49634e+00
       O  3.00223e+01  4.08747e+01  7.36832e+00
       O  3.11712e+01  4.18859e+01  5.61817e+00
       C  6.38255e+00  8.16469e+00  1.91771e+01
       O  5.68674e+00  7.58145e+00  1.84512e+01
       O  7.07333e+00  8.75026e+00  1.99069e+01
       C  1.17264e+01  7.90528e+00  1.95773e+01
       O  1.24755e+01  8.62526e+00  2.00944e+01
       O  1.09710e+01  7.18863e+00  1.90543e+01
       C  2.78603e+01  3.39928e+01  3.00319e+01
       O  2.88815e+01  3.34380e+01  3.00607e+01
       O  2.68399e+01  3.45491e+01  2.99991e+01
       C  3.05339e+01  3.45200e+01  2.11885e+01
       O  3.11552e+01  3.48314e+01  2.02565e+01
       O  2.99116e+01  3.42085e+01  2.21199e+01
       C  2.61123e+01  2.84053e+01  3.50354e+01
       O  2.51889e+01  2.90807e+01  3.52433e+01
       O  2.70374e+01  2.77309e+01  3.48317e+01
       C  2.54472e+01  2.28431e+00  1.00212e+01
       O  2.55650e+01  2.96608e+00  1.09558e+01
       O  2.53067e+01  1.60659e+00  9.08684e+00
       C  3.88948e+01  1.40534e+01  1.49470e+01
       O  3.91631e+01  1.37638e+01  1.38534e+01
       O  3.86299e+01  1.43391e+01  1.60418e+01
       C  6.43366e+00  2.84033e+01  8.30490e+00
       O  7.43481e+00  2.83475e+01  7.71599e+00
       O  5.43180e+00  2.84621e+01  8.89109e+00
       C  6.65087e+00  2.68716e+01  1.14236e+01
       O  7.11311e+00  2.63896e+01  1.04719e+01
       O  6.18196e+00  2.73545e+01  1.23712e+01
       C  1.23497e+01  2.45434e+01  1.43946e+01
       O  1.12307e+01  2.46824e+01  1.41106e+01
       O  1.34700e+01  2.44104e+01  1.46741e+01
       C  9.74375e+00  5.27652e+00  2.12134e+01
       O  1.08836e+01  5.04662e+00  2.12201e+01
       O  8.60428e+00  5.50721e+00  2.12036e+01
       C  1.02988e+01  2.74639e+01  8.36758e+00
       O  1.05928e+01  2.75337e+01  7.24539e+00
       O  1.00020e+01  2.73967e+01  9.48979e+00
       C  2.07224e+01  3.58990e+01  2.90167e+01
       O  2.00946e+01  3.49281e+01  2.91357e+01
       O  2.13554e+01  3.68671e+01  2.88993e+01
       C  1.37596e+01  4.71466e+00  2.04797e+01
       O  1.39437e+01  5.86186e+00  2.04246e+01
       O  1.35894e+01  3.56594e+00  2.05263e+01
       C  2.67935e+01  2.13968e+01  3.49471e+01
       O  2.57452e+01  2.18809e+01  3.48115e+01
       O  2.78390e+01  2.09127e+01  3.50972e+01
       C  2.39968e+01  3.90257e+01  1.42092e+01
       O  2.42006e+01  3.90578e+01  1.53532e+01
       O  2.37984e+01  3.90072e+01  1.30640e+01
       C  1.23910e+01  1.14098e+01  2.11187e+01
       O  1.19217e+01  1.10679e+01  2.21260e+01
       O  1.28513e+01  1.17604e+01  2.01102e+01
       C  1.97701e+01  3.03708e+01  3.41512e+01
       O  2.02435e+01  3.02694e+01  3.30941e+01
       O  1.92919e+01  3.04765e+01  3.52061e+01
       C  3.79403e+01  6.64168e+00  1.52044e+01
       O  3.81211e+01  5.49445e+00  1.52534e+01
       O  3.77612e+01  7.78913e+00  1.51496e+01
       C  2.90255e+01  2.32819e+01  2.38867e+01
       O  2.96639e+01  2.24938e+01  2.44550e+01
       O  2.83815e+01  2.40640e+01  2.33164e+01
       C  3.72696e+01  2.90765e+01  1.58610e+01
       O  3.75395e+01  3.01961e+01  1.60199e+01
       O  3.70040e+01  2.79571e+01  1.56973e+01
       C  3.77420e+01  2.29528e+01  1.17109e+01
       O  3.80638e+01  2.38975e+01  1.11145e+01
       O  3.74299e+01  2.20071e+01  1.23105e+01
       C  1.43438e+01  3.45355e+01  6.44823e+00
       O  1.41265e+01  3.54525e+01  5.76750e+00
       O  1.45519e+01  3.36175e+01  7.13132e+00
       C  2.80243e+00  4.00932e+00  3.16545e+01
       O  3.90851e+00  3.65080e+00  3.16489e+01
       O  1.69579e+00  4.36655e+00  3.16654e+01
       C  6.56940e+00  3.52905e+01  2.09711e+01
       O  6.36185e+00  3.53605e+01  2.21124e+01
       O  6.78479e+00  3.52125e+01  1.98310e+01
       C  3.06355e+01  2.76232e+01  6.46420e+00
       O  3.11505e+01  2.70431e+01  7.32983e+00
       O  3.01194e+01  2.82024e+01  5.59896e+00
       C  1.24223e+01  2.45214e+01  1.84811e+01
       O  1.19094e+01  2.45702e+01  1.74388e+01
       O  1.29336e+01  2.44657e+01  1.95233e+01
       C  3.14549e+01  9.98868e+00  2.17738e+01
       O  3.25530e+01  1.03100e+01  2.19808e+01
       O  3.03563e+01  9.67265e+00  2.15620e+01
       C  1.95265e+01  4.96255e+00  6.72327e+00
       O  1.85145e+01  4.97255e+00  6.15242e+00
       O  2.05400e+01  4.95396e+00  7.29269e+00
       C  2.50892e+01  2.16511e+01  3.78132e+01
       O  2.49311e+01  2.27916e+01  3.79728e+01
       O  2.52641e+01  2.05130e+01  3.76483e+01
       C  1.02716e+01  1.76508e+01  2.66576e+01
       O  9.19888e+00  1.79287e+01  2.70094e+01
       O  1.13444e+01  1.73693e+01  2.63089e+01
       C  2.63929e+01  6.46275e+00  3.44522e+01
       O  2.67844e+01  5.39550e+00  3.46980e+01
       O  2.60099e+01  7.53190e+00  3.42063e+01
       C  2.24039e+01  3.96413e+01  2.93396e+01
       O  2.13147e+01  3.99448e+01  2.96122e+01
       O  2.34906e+01  3.93369e+01  2.90593e+01
       C  2.18487e+01  2.00939e+01  3.63482e+01
       O  2.13111e+01  1.91585e+01  3.59150e+01
       O  2.23845e+01  2.10268e+01  3.67893e+01
       C  2.93037e+01  1.29998e+01  2.29250e+01
       O  3.03881e+01  1.25943e+01  2.28206e+01
       O  2.82189e+01  1.34043e+01  2.30295e+01
       C  2.60903e+01  5.52052e+00  7.93064e+00
       O  2.55550e+01  6.49558e+00  7.59299e+00
       O  2.66253e+01  4.54293e+00  8.26091e+00
       C  2.12685e+01  7.83307e+00  2.54638e+01
       O  2.06765e+01  7.68909e+00  2.64538e+01
       O  2.18702e+01  7.97459e+00  2.44796e+01
       C  4.10344e+00  1.92059e+01  3.81711e+00
       O  3.71030e+00  1.97608e+01  4.75924e+00
       O  4.49817e+00  1.86509e+01  2.87480e+00
       C  8.65426e+00  1.38111e+01  1.82393e+01
       O  9.24659e+00  1.48111e+01  1.82616e+01
       O  8.06276e+00  1.28099e+01  1.82146e+01
       C  5.76893e+00  1.16029e+01  1.98340e+01
       O  6.31340e+00  1.21143e+01  2.07253e+01
       O  5.22529e+00  1.10876e+01  1.89450e+01
       C  1.86420e+01  2.92654e+01  3.80221e+01
       O  1.87772e+01  2.82668e+01  3.74425e+01
       O  1.85028e+01  3.02573e+01  3.86123e+01
       C  3.65446e+01  7.37356e+00  2.07751e+01
       O  3.58110e+01  6.50596e+00  2.10214e+01
       O  3.72799e+01  8.23742e+00  2.05217e+01
       C  1.18581e+01  1.92347e+01  3.16782e+01
       O  1.21827e+01  1.85415e+01  3.25523e+01
       O  1.15346e+01  1.99266e+01  3.08016e+01
       C  2.16244e+01  1.62200e+01  3.65403e+01
       O  2.05086e+01  1.60797e+01  3.68351e+01
       O  2.27426e+01  1.63533e+01  3.62509e+01
       C  3.71122e+01  1.26033e+01  1.79544e+01
       O  3.60923e+01  1.29387e+01  1.75089e+01
       O  3.81312e+01  1.22598e+01  1.83975e+01
       C  3.65976e+00  1.75426e+01  1.97482e-01
       O  4.05258e+00  1.64864e+01  4.86054e-01
       O  3.26282e+00  1.85976e+01 -8.56479e-02
       C  2.36941e+01  3.39967e+01  1.83758e+01
       O  2.35367e+01  3.32964e+01  1.92896e+01
       O  2.38491e+01  3.46978e+01  1.74616e+01
       C  2.40079e+01  1.82345e+01  3.92896e+01
       O  2.31355e+01  1.84737e+01  3.85585e+01
       O  2.48814e+01  1.80018e+01  4.00210e+01
       C  1.22199e+01  1.37405e+01  1.79531e+01
       O  1.15192e+01  1.29205e+01  1.75168e+01
       O  1.29141e+01  1.45656e+01  1.83859e+01
       C  9.14373e+00  3.33702e+01  4.65333e+00
       O  9.27728e+00  3.33128e+01  5.80719e+00
       O  9.00811e+00  3.34194e+01  3.50005e+00
       C  2.38514e+01  3.24080e+00  3.08669e+01
       O  2.41621e+01  4.32875e+00  3.11344e+01
       O  2.35410e+01  2.15530e+00  3.05899e+01
       C  7.23308e+00  1.71561e+01  1.86372e-01
       O  7.80608e+00  1.65357e+01  9.84718e-01
       O  6.66175e+00  1.77844e+01 -6.07958e-01
       C  1.95743e+01  2.64163e+01  3.52139e+01
       O  1.98552e+01  2.73651e+01  3.46033e+01
       O  1.92947e+01  2.54616e+01  3.58148e+01
       C  4.67055e+00  1.65738e+01  2.25885e+01
       O  5.70559e+00  1.63467e+01  2.30669e+01
       O  3.63832e+00  1.67995e+01  2.21054e+01
       C  3.45603e+01  1.44629e+01  3.60058e+01
       O  3.51043e+01  1.43221e+01  3.70232e+01
       O  3.40104e+01  1.46038e+01  3.49906e+01
       C  1.70564e+01  1.39480e+01  1.17785e+01
       O  1.65490e+01  1.31290e+01  1.24289e+01
       O  1.75644e+01  1.47665e+01  1.11290e+01
       C  2.65322e+01  1.55410e+01  2.42085e+01
       O  2.71237e+01  1.53192e+01  2.51853e+01
       O  2.59334e+01  1.57656e+01  2.32379e+01
       C  1.14702e+01  5.94088e-01  2.87391e+00
       O  1.03535e+01  8.61951e-01  3.05462e+00
       O  1.25901e+01  3.27879e-01  2.70825e+00
       C  2.20956e+01  3.53941e+01  1.50032e+01
       O  2.15080e+01  3.44714e+01  1.53975e+01
       O  2.26815e+01  3.63186e+01  1.46115e+01
       C  1.96071e+01  4.32457e+00  3.54742e+01
       O  1.87039e+01  3.62851e+00  3.52476e+01
       O  2.05156e+01  5.01406e+00  3.56992e+01
       C  1.31534e+01  1.04307e+01  1.72818e+01
       O  1.22267e+01  9.73265e+00  1.73619e+01
       O  1.40695e+01  1.11411e+01  1.71934e+01
       C  8.99555e+00  2.98769e+01  1.09270e+01
       O  1.00832e+01  3.00797e+01  1.12836e+01
       O  7.90881e+00  2.96669e+01  1.05688e+01
       C  6.10328e+00  3.01209e+01  3.84092e+01
       O  5.98311e+00  3.07796e+01  3.93589e+01
       O  6.22252e+00  2.94631e+01  3.74584e+01
       C  7.72494e+00  2.56420e+01  3.10387e+01
       O  8.54285e+00  2.48798e+01  3.13583e+01
       O  6.91274e+00  2.64076e+01  3.07149e+01
       C  1.74208e+01  3.57555e+01  8.82428e+00
       O  1.81474e+01  3.57478e+01  9.73227e+00
       O  1.66971e+01  3.57748e+01  7.91434e+00
       C  1.81345e+01  3.04284e+01  1.70448e+00
       O  1.84436e+01  2.93100e+01  1.63116e+00
       O  1.78202e+01  3.15452e+01  1.78116e+00
       C  2.84110e+01  9.10736e+00  2.37250e+01
       O  2.87582e+01  8.00152e+00  2.38089e+01
       O  2.80563e+01  1.02126e+01  2.36516e+01
       C  3.35435e+01  3.16995e+01  2.10121e+01
       O  3.25452e+01  3.22270e+01  2.12892e+01
       O  3.45393e+01  3.11688e+01  2.07339e+01
       C  7.59100e+00  3.63632e+01  1.36931e+01
       O  7.01361e+00  3.54420e+01  1.32799e+01
       O  8.16050e+00  3.72871e+01  1.41075e+01
       C  3.83907e+01  1.60181e+01  1.05281e+01
       O  3.81139e+01  1.61838e+01  1.16455e+01
       O  3.86704e+01  1.58618e+01  9.41111e+00
       C  3.23652e+01  3.81888e+01  2.90319e+01
       O  3.27449e+01  3.86396e+01  3.00334e+01
       O  3.19820e+01  3.77333e+01  2.80328e+01
       C  2.21080e+01  1.82058e+01  5.52967e+00
       O  2.27492e+01  1.88728e+01  4.82445e+00
       O  2.14721e+01  1.75422e+01  6.24020e+00
       C  1.70479e+01  3.20076e+01  7.57476e+00
       O  1.74652e+01  3.27780e+01  8.33912e+00
       O  1.66364e+01  3.12373e+01  6.80687e+00
       C  8.24448e+00  1.56573e+01  2.14007e+01
       O  7.38979e+00  1.52801e+01  2.07078e+01
       O  9.09688e+00  1.60341e+01  2.20953e+01
       C  2.68521e+01  3.61073e+01  1.85214e+00
       O  2.77169e+01  3.62785e+01  1.09414e+00
       O  2.59880e+01  3.59329e+01  2.60901e+00
       C  3.26732e+01  3.51867e+01  3.72509e+01
       O  3.19912e+01  3.44606e+01  3.66521e+01
       O  3.33635e+01  3.59077e+01  3.78470e+01
       C  2.92427e+01  3.02378e+00  9.31599e+00
       O  2.83746e+01  2.38912e+00  9.75733e+00
       O  3.01165e+01  3.65701e+00  8.88192e+00
       C  2.59293e+01  4.10027e+00  3.73476e+01
       O  2.65479e+01  4.89256e+00  3.79317e+01
       O  2.53065e+01  3.31003e+00  3.67651e+01
       C  2.30058e+01  3.28732e+00  7.69635e+00
       O  2.35077e+01  4.02050e+00  8.44704e+00
       O  2.25107e+01  2.55279e+00  6.94411e+00
       C  3.53017e+01  2.28651e+01  8.53521e+00
       O  3.49857e+01  2.31361e+01  7.44985e+00
       O  3.56208e+01  2.25869e+01  9.61801e+00
       C  3.82368e+01  1.21012e+01  1.15682e+01
       O  3.84398e+01  1.11529e+01  1.22095e+01
       O  3.80294e+01  1.30459e+01  1.09235e+01
       C  2.98613e+01  1.47966e+01  2.63260e+01
       O  3.02842e+01  1.47379e+01  2.52438e+01
       O  2.94337e+01  1.48505e+01  2.74058e+01
       C  5.39371e+00  1.07772e+01  3.12678e+00
       O  5.20777e+00  9.72423e+00  2.67073e+00
       O  5.57668e+00  1.18316e+01  3.58030e+00
       C  1.04695e+01  3.68885e+01  3.61573e+00
       O  1.06183e+01  3.76709e+01  2.76908e+00
       O  1.03158e+01  3.61011e+01  4.45711e+00
       C  3.48717e+01  3.12804e+01  1.76973e+01
       O  3.48856e+01  3.24291e+01  1.78743e+01
       O  3.48591e+01  3.01319e+01  1.75162e+01
       C  1.21191e+01  2.10697e+01  2.80706e+01
       O  1.28752e+01  2.18275e+01  2.85236e+01
       O  1.13711e+01  2.03057e+01  2.76135e+01
       C  2.73754e+01  3.19308e+01  3.33069e+01
       O  2.74232e+01  3.08692e+01  3.37793e+01
       O  2.73284e+01  3.29921e+01  3.28357e+01
       C  3.02776e+01  3.67496e+01  2.41921e+01
       O  3.06741e+01  3.70105e+01  2.31305e+01
       O  2.98860e+01  3.64871e+01  2.52547e+01
       C  2.44897e+01  5.48794e+00  1.53246e+01
       O  2.34566e+01  5.02282e+00  1.55834e+01
       O  2.55249e+01  5.95365e+00  1.50732e+01
       C  1.05522e+01  2.71550e+01  1.23655e+01
       O  9.40577e+00  2.72147e+01  1.25508e+01
       O  1.16986e+01  2.71018e+01  1.21788e+01
       C  3.38545e+01  3.61646e+01  3.15831e+01
       O  3.43077e+01  3.59809e+01  3.05280e+01
       O  3.34050e+01  3.63445e+01  3.26396e+01
       C  5.34310e+00  3.97363e+01  3.17178e+01
       O  6.43394e+00  3.93375e+01  3.16644e+01
       O  4.25074e+00  4.01316e+01  3.17679e+01
       C  3.16088e+00  3.85297e+01  2.91388e+01
       O  2.08135e+00  3.88803e+01  2.88887e+01
       O  4.24349e+00  3.81835e+01  2.93830e+01
       C  2.76879e+01  4.93147e+00  9.18990e-01
       O  2.71692e+01  3.89112e+00  8.97062e-01
       O  2.82032e+01  5.97323e+00  9.38388e-01
       C  2.63533e+01  2.41041e+00  3.40843e+01
       O  2.73315e+01  2.13899e+00  3.46502e+01
       O  2.53766e+01  2.67566e+00  3.35113e+01
       C  1.42241e+00  7.01043e+00  1.46343e+01
       O  9.22697e-01  6.94234e+00  1.56824e+01
       O  1.91267e+00  7.06258e+00  1.35821e+01
       C  1.43826e+01  2.28009e+01  2.09861e+00
       O  1.38616e+01  2.37216e+01  1.61769e+00
       O  1.49019e+01  2.18785e+01  2.57828e+00
       C  2.00856e+01  1.39761e+01  3.38733e+01
       O  2.10991e+01  1.44441e+01  3.41968e+01
       O  1.90729e+01  1.35070e+01  3.35497e+01
       C  2.63637e+01  2.49420e+01  3.64314e+01
       O  2.55192e+01  2.57337e+01  3.65371e+01
       O  2.72112e+01  2.41523e+01  3.63255e+01
       C  3.42673e+01  4.15851e+01  1.71475e+01
       O  3.43087e+01  4.12155e+01  1.82486e+01
       O  3.42213e+01  4.19436e+01  1.60423e+01
       C  1.01118e+01  1.04097e+01  2.50068e+01
       O  9.72406e+00  1.14217e+01  2.54271e+01
       O  1.04924e+01  9.39210e+00  2.45917e+01
       C  1.89336e+01  3.51771e+01  3.20087e+01
       O  1.89368e+01  3.40651e+01  3.23471e+01
       O  1.89295e+01  3.62917e+01  3.16777e+01
       C  1.01400e+01  1.43789e+01  2.45074e+01
       O  1.07040e+01  1.37703e+01  2.36925e+01
       O  9.57937e+00  1.49868e+01  2.53245e+01
       C  3.23895e+01  1.66123e+01  3.29985e+01
       O  3.34823e+01  1.70007e+01  3.29122e+01
       O  3.12937e+01  1.62337e+01  3.30804e+01
       C  2.29693e+01  4.48308e+00  3.40565e+01
       O  2.22520e+01  3.74350e+00  3.35172e+01
       O  2.36860e+01  5.22396e+00  3.45944e+01
       C  1.61398e+01  2.02740e+01  2.23736e+01
       O  1.71186e+01  2.00242e+01  2.17975e+01
       O  1.51622e+01  2.05174e+01  2.29532e+01
       C  6.03620e+00  2.24047e+01  3.19525e+01
       O  5.87045e+00  2.19285e+01  3.30002e+01
       O  6.19029e+00  2.28832e+01  3.09045e+01
       C  6.46868e+00  3.00933e+01  1.34839e+01
       O  7.60781e+00  2.99138e+01  1.36365e+01
       O  5.33173e+00  3.02806e+01  1.33322e+01
       C  3.70056e+01  1.90321e+01  1.20936e+01
       O  3.73406e+01  1.91250e+01  1.09838e+01
       O  3.66700e+01  1.89283e+01  1.32014e+01
       C  1.38799e+01  3.83452e+01  4.87549e+00
       O  1.50282e+01  3.84551e+01  4.73477e+00
       O  1.27303e+01  3.82436e+01  5.02007e+00
       C  9.51369e+00  6.51452e+00  2.51657e+01
       O  9.13220e+00  6.95630e+00  2.61713e+01
       O  9.88324e+00  6.07446e+00  2.41548e+01
       C  3.51695e+01  3.93439e+00  1.39704e+01
       O  3.52101e+01  3.06515e+00  1.31993e+01
       O  3.51438e+01  4.81196e+00  1.47333e+01
       C  1.99738e+01  2.64922e+01  7.27148e+00
       O  1.94024e+01  2.54843e+01  7.18293e+00
       O  2.05521e+01  2.74968e+01  7.36378e+00
       C  1.51573e+01  8.31054e+00  1.45028e+01
       O  1.44051e+01  8.55775e+00  1.53542e+01
       O  1.59020e+01  8.05336e+00  1.36485e+01
       C  1.83771e+01  2.92602e+01  5.25947e+00
       O  1.79947e+01  2.83236e+01  5.83200e+00
       O  1.87677e+01  3.01912e+01  4.68254e+00
       C  9.52469e+00  3.03273e+01  6.82604e+00
       O  9.37185e+00  3.01738e+01  5.68401e+00
       O  9.67480e+00  3.04836e+01  7.96895e+00
       C  1.11809e+01  3.39280e+00 -1.52545e-01
       O  1.13773e+01  2.43938e+00  4.82655e-01
       O  1.09750e+01  4.34641e+00 -7.85730e-01
       C  4.09537e-01  1.51970e+01  3.45985e+01
       O -6.65726e-01  1.49984e+01  3.42030e+01
       O  1.48505e+00  1.53960e+01  3.49922e+01
       C  1.92925e+01  2.17070e+01  2.05680e+01
       O  1.84850e+01  2.22288e+01  1.99135e+01
       O  2.01078e+01  2.11958e+01  2.12194e+01
       C  3.48294e+01  9.83058e+00  2.37863e+01
       O  3.42632e+01  1.03569e+01  2.46553e+01
       O  3.53973e+01  9.30036e+00  2.29214e+01
       C  1.60202e+01  2.45286e+00  3.59286e+01
       O  1.61890e+01  1.50087e+00  3.52842e+01
       O  1.58434e+01  3.40136e+00  3.65782e+01
       C  1.55385e+01  3.61697e+01  1.20390e+01
       O  1.52664e+01  3.58309e+01  1.09607e+01
       O  1.58117e+01  3.65197e+01  1.31131e+01
       C  2.98578e+01  7.66569e+00  6.05417e+00
       O  3.00100e+01  8.79561e+00  6.27994e+00
       O  2.97004e+01  6.53641e+00  5.82676e+00
       C  3.40666e+01  1.06175e+01  2.82993e+00
       O  3.32601e+01  1.00765e+01  3.46835e+00
       O  3.48751e+01  1.11572e+01  2.19259e+00
       C  2.50803e+01  5.89864e+00  1.15548e+01
       O  2.59162e+01  6.23830e+00  1.08210e+01
       O  2.42402e+01  5.56901e+00  1.22875e+01
       C  3.08500e+01  3.18894e+01  1.86706e+01
       O  3.18917e+01  3.14706e+01  1.83681e+01
       O  2.98086e+01  3.23049e+01  1.89763e+01
       C  3.96991e+00  7.79727e+00  3.29182e+01
       O  4.24815e+00  8.85106e+00  3.33227e+01
       O  3.68588e+00  6.74063e+00  3.25252e+01
       C  6.19205e+00  3.60383e+01  1.69807e+01
       O  7.03643e+00  3.54093e+01  1.64866e+01
       O  5.35080e+00  3.66794e+01  1.74627e+01
       C  2.50357e+01  1.79751e+01  3.02299e+00
       O  2.45103e+01  1.69381e+01  3.04756e+00
       O  2.55553e+01  1.90149e+01  3.00401e+00
       C  2.05107e+01  3.02906e+01  8.51591e+00
       O  2.14419e+01  3.01452e+01  9.19552e+00
       O  1.95763e+01  3.04426e+01  7.84043e+00
       C  3.11761e+01  2.63225e+01  2.31874e+01
       O  3.15396e+01  2.68402e+01  2.22124e+01
       O  3.08181e+01  2.58081e+01  2.41671e+01
       C  1.66389e+01  2.39340e+01  2.16807e+01
       O  1.70340e+01  2.32012e+01  2.24922e+01
       O  1.62487e+01  2.46677e+01  2.08681e+01
       C  9.21127e+00  1.20819e+01  2.16626e+01
       O  9.53723e+00  1.29644e+01  2.09786e+01
       O  8.88207e+00  1.11954e+01  2.23391e+01
       C  6.76091e+00  3.53065e+00  3.23660e+01
       O  6.64368e+00  2.38883e+00  3.25524e+01
       O  6.88804e+00  4.67203e+00  3.21866e+01
       C  1.55348e+01  3.14492e+01  4.01749e+00
       O  1.57949e+01  3.03420e+01  3.77513e+00
       O  1.52712e+01  3.25559e+01  4.25725e+00
       C  2.63755e+01  2.12801e+01  1.12619e+00
       O  2.74378e+01  2.14518e+01  1.56462e+00
       O  2.53130e+01  2.11171e+01  6.82052e-01
       C  3.39090e+01  3.73558e+01  4.33938e-01
       O  3.28348e+01  3.77929e+01  3.50523e-01
       O  3.49828e+01  3.69211e+01  5.27770e-01
       C  3.75210e+01  1.26270e+01  3.37650e+01
       O  3.67329e+01  1.31396e+01  3.44499e+01
       O  3.83135e+01  1.21147e+01  3.30869e+01
       C  3.20158e+01  2.05379e+01  2.43141e+01
       O  3.20096e+01  2.02062e+01  2.54282e+01
       O  3.20274e+01  2.08703e+01  2.31997e+01
       C  1.20480e+01  2.15873e+01  1.66695e+01
       O  1.19634e+01  2.17096e+01  1.55170e+01
       O  1.21304e+01  2.14669e+01  1.78230e+01
       C  1.60132e+01  1.21875e+01  1.52285e+01
       O  1.57565e+01  1.32871e+01  1.55049e+01
       O  1.62718e+01  1.10884e+01  1.49501e+01
       C  2.59489e+01  2.94386e+01  3.14637e+01
       O  2.54846e+01  2.85518e+01  3.20547e+01
       O  2.64188e+01  3.03247e+01  3.08757e+01
       C  3.90570e+01  3.16805e+00  3.25684e+01
       O  3.96160e+01  2.17543e+00  3.23366e+01
       O  3.84923e+01  4.15669e+00  3.28015e+01
       C  3.13302e+01  3.47699e+01  2.89640e+01
       O  3.13181e+01  3.41486e+01  2.79819e+01
       O  3.13567e+01  3.53960e+01  2.99441e+01
       C  1.30085e+01  2.94820e+01  1.06035e+01
       O  1.25785e+01  2.91108e+01  9.58858e+00
       O  1.34474e+01  2.98540e+01  1.16131e+01
       C  3.30397e+01  1.39049e+01  2.82587e+01
       O  3.35603e+01  1.30653e+01  2.88717e+01
       O  3.25198e+01  1.47493e+01  2.76507e+01
       C  8.00487e+00  3.30227e+01  1.48445e+01
       O  9.05338e+00  3.34690e+01  1.46154e+01
       O  6.95337e+00  3.25807e+01  1.50706e+01
       C  1.26066e+01  6.84280e+00  3.83525e+01
       O  1.20560e+01  7.04761e+00  3.73499e+01
       O  1.31536e+01  6.63794e+00  3.93585e+01
       C  2.99992e+01  3.74901e+01  3.93237e+01
       O  2.96530e+01  3.85013e+01  3.97805e+01
       O  3.03435e+01  3.64816e+01  3.88575e+01
       C  2.17222e+01  1.66082e+01  1.82883e+00
       O  2.12837e+01  1.68300e+01  2.88259e+00
       O  2.21564e+01  1.63881e+01  7.73068e-01
       C  3.60018e+01  5.24085e+00  1.78387e+01
       O  3.64646e+01  6.30802e+00  1.78587e+01
       O  3.55552e+01  4.16791e+00  1.78233e+01
       C  3.30449e+01  2.54874e+00  9.32546e+00
       O  3.27925e+01  1.75229e+00  8.51658e+00
       O  3.33018e+01  3.34239e+00  1.01343e+01
       C  2.37275e+01  2.06009e+01  3.29935e+01
       O  2.27791e+01  2.08657e+01  3.36115e+01
       O  2.46723e+01  2.03390e+01  3.23687e+01
       C  4.42522e+00  1.07991e+01  6.60985e+00
       O  3.75598e+00  1.15918e+01  7.13326e+00
       O  5.09452e+00  1.00034e+01  6.08933e+00
       C  2.88890e+01  3.74278e+01  2.78792e+01
       O  2.89309e+01  3.63542e+01  2.83247e+01
       O  2.88621e+01  3.85073e+01  2.74476e+01
       C  2.51358e+01  1.80743e+01  3.59996e+01
       O  2.56341e+01  1.74232e+01  3.68235e+01
       O  2.46465e+01  1.87362e+01  3.51778e+01
       C  1.51055e+01  4.23020e+00 -6.11043e-01
       O  1.61141e+01  4.79979e+00 -5.11650e-01
       O  1.40990e+01  3.65700e+00 -7.11053e-01
       C  3.17854e+01  2.29628e+01  2.10345e+01
       O  3.12529e+01  2.36239e+01  2.18296e+01
       O  3.23152e+01  2.23079e+01  2.02343e+01
       C  3.07369e+01  1.54556e+01  3.00786e+01
       O  3.06067e+01  1.43089e+01  3.02166e+01
       O  3.08791e+01  1.66010e+01  2.99377e+01
       C  1.50959e+01  2.23074e+01  1.89115e+01
       O  1.49151e+01  2.27520e+01  1.78526e+01
       O  1.52718e+01  2.18582e+01  1.99693e+01
       C  3.11203e+01  1.04166e-01  2.62143e+01
       O  3.13628e+01  6.36745e-01  2.72186e+01
       O  3.08864e+01 -4.28334e-01  2.52075e+01
       C  2.11181e+01  1.17055e+00  2.60818e+01
       O  2.07076e+01  2.18456e+00  2.56898e+01
       O  2.15361e+01  1.57397e-01  2.64700e+01
       C  1.64232e+01  6.37398e+00  3.68488e+01
       O  1.75510e+01  6.19660e+00  3.66296e+01
       O  1.52949e+01  6.55594e+00  3.70624e+01
       C  3.49847e+01  1.02930e+01  2.00006e+01
       O  3.55447e+01  1.12849e+01  2.02345e+01
       O  3.44259e+01  9.30028e+00  1.97686e+01
       C  9.70995e+00  8.83000e+00  2.84425e+01
       O  8.86640e+00  8.42464e+00  2.91317e+01
       O  1.05533e+01  9.24495e+00  2.77576e+01
       C  5.36583e+00  2.50776e+01  3.45147e+01
       O  4.69740e+00  2.51458e+01  3.54627e+01
       O  6.03186e+00  2.50088e+01  3.35640e+01
       C  4.43628e+00  3.39807e+01  1.40546e+01
       O  4.38593e+00  3.45659e+01  1.50581e+01
       O  4.48707e+00  3.34060e+01  1.30458e+01
       C  3.29106e+01  6.75426e+00  1.99430e+01
       O  3.24090e+01  7.21545e+00  2.08852e+01
       O  3.34067e+01  6.29157e+00  1.89986e+01
       C  1.86566e+01  3.92021e+01  2.82337e+01
       O  1.85969e+01  3.81448e+01  2.87129e+01
       O  1.87092e+01  4.02542e+01  2.77418e+01
       C  3.78944e+01  9.24243e+00  1.77839e+01
       O  3.67742e+01  9.55365e+00  1.77818e+01
       O  3.90173e+01  8.94090e+00  1.77794e+01
       C  3.47424e+01  1.70521e+01  3.01488e+01
       O  3.53846e+01  1.79929e+01  3.03787e+01
       O  3.41055e+01  1.61061e+01  2.99208e+01
       C  1.37372e+00  3.56069e+01  3.22128e+01
       O  8.20430e-01  3.49166e+01  3.29666e+01
       O  1.92701e+00  3.62965e+01  3.14579e+01
       C  2.76355e+01  8.41692e+00  9.09999e+00
       O  2.82491e+01  7.55632e+00  8.61496e+00
       O  2.70233e+01  9.27837e+00  9.58296e+00
       C  2.34798e+01  3.12448e+01  3.40023e+01
       O  2.26378e+01  3.11812e+01  3.48011e+01
       O  2.43224e+01  3.13181e+01  3.32038e+01
       C  3.14290e+01  1.11745e+01  2.55499e+01
       O  3.18221e+01  1.20402e+01  2.62183e+01
       O  3.10263e+01  1.03082e+01  2.48856e+01
       C  4.01548e+00  3.81904e+01  1.96493e+01
       O  3.42097e+00  3.88795e+01  1.89266e+01
       O  4.60752e+00  3.75077e+01  2.03811e+01
       C  2.51353e+01  3.68577e+01  2.92195e+01
       O  2.59977e+01  3.73939e+01  2.86534e+01
       O  2.42743e+01  3.63199e+01  2.97869e+01
       C -6.18283e-01  1.03994e+01  1.49801e+01
       O  2.30709e-01  9.73665e+00  1.45427e+01
       O -1.46457e+00  1.10635e+01  1.54230e+01
       C  3.61344e+00  1.32690e+01  3.57153e+01
       O  4.47186e+00  1.39701e+01  3.60674e+01
       O  2.75044e+00  1.25722e+01  3.53671e+01
       C  3.52879e+01  1.29390e+01 -2.76327e-01
       O  3.41277e+01  1.28884e+01 -3.34296e-01
       O  3.64478e+01  1.29874e+01 -2.17095e-01
       C  4.07298e+01  1.50856e+00  2.95746e+01
       O  4.18066e+01  1.86115e+00  2.98362e+01
       O  3.96514e+01  1.16769e+00  2.93066e+01
       C  2.90555e+01  2.21233e+01  3.77426e+01
       O  2.80496e+01  2.17793e+01  3.82150e+01
       O  3.00615e+01  2.24682e+01  3.72748e+01
       C  2.84436e+01  3.96268e+00  4.92470e+00
       O  2.83668e+01  4.42139e+00  3.85937e+00
       O  2.85082e+01  3.49513e+00  5.98713e+00
       C  3.02195e+01  1.72100e+01  2.33785e+01
       O  3.12612e+01  1.76876e+01  2.35739e+01
       O  2.91756e+01  1.67404e+01  2.31752e+01
       C  2.72931e+01  1.22863e+01  2.57819e+01
       O  2.61413e+01  1.23337e+01  2.56352e+01
       O  2.84458e+01  1.22365e+01  2.59309e+01
       C  3.15528e+01  3.43148e+00  1.26396e+01
       O  3.22333e+01  4.04165e+00  1.33577e+01
       O  3.08671e+01  2.82296e+00  1.19245e+01
       C  3.19193e+01  1.78030e+01  2.72735e+01
       O  3.29172e+01  1.80794e+01  2.78022e+01
       O  3.09236e+01  1.75193e+01  2.67433e+01
       C  1.73339e+01  7.77820e+00  2.41512e+01
       O  1.62014e+01  7.51566e+00  2.41798e+01
       O  1.84668e+01  8.03798e+00  2.41318e+01
       C  1.28509e+01  8.09615e+00  2.59931e+01
       O  1.22934e+01  7.09823e+00  2.62057e+01
       O  1.34104e+01  9.09380e+00  2.57840e+01
       C  6.48912e+00  1.05902e+01  3.42819e+01
       O  5.76647e+00  1.13473e+01  3.47880e+01
       O  7.21903e+00  9.83703e+00  3.37803e+01
       C  1.37472e+01  8.53984e+00  2.27287e+01
       O  1.44802e+01  9.36115e+00  2.23535e+01
       O  1.30140e+01  7.71737e+00  2.31002e+01
       C  7.68114e+00  7.53624e+00  3.17712e+01
       O  6.58771e+00  7.76826e+00  3.14495e+01
       O  8.77267e+00  7.30446e+00  3.20977e+01
       C  3.39420e+01  2.60984e+01  8.02670e+00
       O  3.36216e+01  2.54862e+01  8.96181e+00
       O  3.42654e+01  2.67128e+01  7.09414e+00
       C  9.38829e+00  2.20735e+01  3.04814e+01
       O  9.80209e+00  2.24919e+01  2.94789e+01
       O  8.97259e+00  2.16483e+01  3.14807e+01