LAMMPS Description

1029  atoms
 686  bonds
 343  angles

 2  atom types
 1  bond types
 1  angle types


0.0 53.557 xlo xhi
0.0 53.557 ylo yhi
0.0 53.557 zlo zhi

Masses

  1 12.0107
  2 15.9994

Bond Coeffs

 1    2.196    0.45106005 -0.67297933 0.5857145

Angle Coeffs

  1    0.0861  180.000000

Atoms

1 1 1 0.651200 30.925993 0.382155 40.504300
2 1 2 -0.325600 28.801418 0.002348 40.908943
3 1 2 -0.325600 33.050569 0.761962 40.099658
4 2 1 0.651200 41.901643 53.481371 43.945343
5 2 2 -0.325600 44.025453 53.405746 43.392604
6 2 2 -0.325600 39.777833 53.556997 44.498082
7 3 1 0.651200 44.165185 13.005243 47.695470
8 3 2 -0.325600 45.303828 14.832267 47.262703
9 3 2 -0.325600 43.026543 11.178219 48.128236
10 4 1 0.651200 21.195818 36.176066 43.517380
11 4 2 -0.325600 22.258140 34.293437 43.903369
12 4 2 -0.325600 20.133496 38.058696 43.131390
13 5 1 0.651200 11.641226 49.566462 22.917195
14 5 2 -0.325600 10.366130 51.344627 22.732616
15 5 2 -0.325600 12.916322 47.788297 23.101773
16 6 1 0.651200 25.299574 3.353609 38.303944
17 6 2 -0.325600 24.098816 2.970455 40.102049
18 6 2 -0.325600 26.500332 3.736763 36.505839
19 7 1 0.651200 44.803691 19.753644 49.666516
20 7 2 -0.325600 46.941663 20.124747 49.330115
21 7 2 -0.325600 42.665718 19.382541 50.002918
22 8 1 0.651200 30.071686 8.502440 53.528386
23 8 2 -0.325600 31.878030 9.750174 53.482658
24 8 2 -0.325600 28.265343 7.254705 53.574115
25 9 1 0.651200 32.082989 16.395361 0.012963
26 9 2 -0.325600 33.933632 15.213567 0.030007
27 9 2 -0.325600 30.232345 17.577155 -0.004082
28 10 1 0.651200 35.227339 37.206702 43.019270
29 10 2 -0.325600 34.309988 38.958111 43.974698
30 10 2 -0.325600 36.144690 35.455292 42.063842
31 11 1 0.651200 28.669034 6.552906 44.447838
32 11 2 -0.325600 30.541956 7.675979 44.677365
33 11 2 -0.325600 26.796112 5.429834 44.218310
34 12 1 0.651200 11.079798 42.969047 41.715758
35 12 2 -0.325600 9.854424 44.741840 42.137031
36 12 2 -0.325600 12.305173 41.196254 41.294485
37 13 1 0.651200 17.407056 41.044811 31.456189
38 13 2 -0.325600 15.913108 39.657902 30.639849
39 13 2 -0.325600 18.901005 42.431720 32.272528
40 14 1 0.651200 43.971881 3.653238 45.158238
41 14 2 -0.325600 44.955303 5.251499 44.017952
42 14 2 -0.325600 42.988459 2.054978 46.298525
43 15 1 0.651200 17.939362 11.054058 35.113149
44 15 2 -0.325600 15.775925 11.415766 35.010583
45 15 2 -0.325600 20.102799 10.692351 35.215715
46 16 1 0.651200 20.713162 1.963848 33.200540
47 16 2 -0.325600 19.415326 3.725462 33.015750
48 16 2 -0.325600 22.010998 0.202233 33.385329
49 17 1 0.651200 2.036331 15.886198 34.572623
50 17 2 -0.325600 0.072248 16.856312 34.420745
51 17 2 -0.325600 4.000414 14.916084 34.724501
52 18 1 0.651200 34.544908 47.708474 8.303876
53 18 2 -0.325600 36.646130 47.988546 8.876797
54 18 2 -0.325600 32.443687 47.428401 7.730956
55 19 1 0.651200 9.871350 17.859377 28.959677
56 19 2 -0.325600 8.433459 16.471709 29.869984
57 19 2 -0.325600 11.309240 19.247044 28.049370
58 20 1 0.651200 5.413799 36.995516 19.231327
59 20 2 -0.325600 5.916236 34.995467 19.985760
60 20 2 -0.325600 4.911362 38.995565 18.476893
61 21 1 0.651200 28.605977 37.547866 41.757035
62 21 2 -0.325600 30.238022 38.073038 40.385017
63 21 2 -0.325600 26.973931 37.022694 43.129052
64 22 1 0.651200 10.421764 14.759121 51.947668
65 22 2 -0.325600 10.891132 12.711718 51.307633
66 22 2 -0.325600 9.952396 16.806524 52.587703
67 23 1 0.651200 5.103515 45.259734 45.081949
68 23 2 -0.325600 5.774209 47.226049 45.792994
69 23 2 -0.325600 4.432820 43.293420 44.370903
70 24 1 0.651200 17.296105 46.463519 10.326434
71 24 2 -0.325600 18.264155 45.116636 8.887478
72 24 2 -0.325600 16.328055 47.810401 11.765391
73 25 1 0.651200 20.386856 13.920731 22.807608
74 25 2 -0.325600 20.108068 15.501106 24.306441
75 25 2 -0.325600 20.665644 12.340355 21.308775
76 26 1 0.651200 17.314500 30.530690 46.441632
77 26 2 -0.325600 18.948555 31.136053 47.777749
78 26 2 -0.325600 15.680444 29.925327 45.105516
79 27 1 0.651200 48.364496 46.402280 18.839885
80 27 2 -0.325600 48.889933 47.347382 20.751038
81 27 2 -0.325600 47.839059 45.457177 16.928731
82 28 1 0.651200 50.325424 26.921050 20.996764
83 28 2 -0.325600 48.604041 26.017570 22.017732
84 28 2 -0.325600 52.046807 27.824530 19.975795
85 29 1 0.651200 10.590227 6.936096 53.555829
86 29 2 -0.325600 12.412672 5.711151 53.559246
87 29 2 -0.325600 8.767781 8.161042 53.552411
88 30 1 0.651200 37.069279 14.845145 4.533602
89 30 2 -0.325600 37.957187 13.010396 3.716824
90 30 2 -0.325600 36.181371 16.679894 5.350380
91 31 1 0.651200 51.902428 26.322936 28.739827
92 31 2 -0.325600 51.776661 25.799210 26.611047
93 31 2 -0.325600 52.028195 26.846662 30.868607
94 32 1 0.651200 6.805595 40.799616 31.983252
95 32 2 -0.325600 8.054789 41.962408 30.601500
96 32 2 -0.325600 5.556401 39.636824 33.365004
97 33 1 0.651200 33.961022 27.183845 13.648718
98 33 2 -0.325600 34.436490 29.327049 13.697892
99 33 2 -0.325600 33.485554 25.040642 13.599543
100 34 1 0.651200 13.092774 21.524724 42.894913
101 34 2 -0.325600 14.650689 22.756124 43.832125
102 34 2 -0.325600 11.534858 20.293325 41.957702
103 35 1 0.651200 43.919266 50.230501 35.843358
104 35 2 -0.325600 42.430468 48.766137 36.522278
105 35 2 -0.325600 45.408063 51.694864 35.164437
106 36 1 0.651200 19.950854 23.392540 23.930791
107 36 2 -0.325600 20.897554 24.980999 22.746575
108 36 2 -0.325600 19.004155 21.804081 25.115008
109 37 1 0.651200 0.253670 34.548001 17.552601
110 37 2 -0.325600 0.520496 32.977970 16.040775
111 37 2 -0.325600 -0.013155 36.118031 19.064428
112 38 1 0.651200 29.125205 21.485607 51.990210
113 38 2 -0.325600 28.464819 20.131489 53.587729
114 38 2 -0.325600 29.785590 22.839725 50.392692
115 39 1 0.651200 33.712221 22.341070 25.549922
116 39 2 -0.325600 32.694351 24.282397 25.419544
117 39 2 -0.325600 34.730091 20.399742 25.680300
118 40 1 0.651200 10.860807 40.038618 13.849303
119 40 2 -0.325600 10.574957 38.317852 12.515489
120 40 2 -0.325600 11.146657 41.759385 15.183118
121 41 1 0.651200 48.138209 21.531224 35.274739
122 41 2 -0.325600 46.083623 22.052165 35.848416
123 41 2 -0.325600 50.192796 21.010284 34.701061
124 42 1 0.651200 44.428934 41.607728 49.557233
125 42 2 -0.325600 44.910562 43.715033 49.943382
126 42 2 -0.325600 43.947305 39.500423 49.171084
127 43 1 0.651200 4.355036 26.613183 49.941136
128 43 2 -0.325600 4.958589 25.019157 48.556717
129 43 2 -0.325600 3.751483 28.207209 51.325554
130 44 1 0.651200 7.087659 14.235001 43.087422
131 44 2 -0.325600 8.027579 14.327742 45.069784
132 44 2 -0.325600 6.147740 14.142259 41.105060
133 45 1 0.651200 10.981542 45.608158 9.664233
134 45 2 -0.325600 11.311387 43.440212 9.550113
135 45 2 -0.325600 10.651697 47.776104 9.778352
136 46 1 0.651200 17.793027 17.527085 31.096337
137 46 2 -0.325600 17.407287 19.150689 29.669128
138 46 2 -0.325600 18.178767 15.903482 32.523546
139 47 1 0.651200 37.896103 41.098484 12.605401
140 47 2 -0.325600 40.011925 40.529325 12.459915
141 47 2 -0.325600 35.780281 41.667643 12.750886
142 48 1 0.651200 3.993583 50.812518 52.520096
143 48 2 -0.325600 5.064895 52.729230 52.502233
144 48 2 -0.325600 2.922271 48.895807 52.537959
145 49 1 0.651200 29.974018 43.938322 17.120637
146 49 2 -0.325600 28.347021 45.092644 18.038368
147 49 2 -0.325600 31.601016 42.784000 16.202906
148 50 1 0.651200 25.154010 21.092291 39.938104
149 50 2 -0.325600 27.149000 22.004148 40.039808
150 50 2 -0.325600 23.159021 20.180434 39.836400
151 51 1 0.651200 35.967559 53.556890 14.107258
152 51 2 -0.325600 34.433578 53.556890 12.536044
153 51 2 -0.325600 37.501539 53.556890 15.678472
154 52 1 0.651200 50.364067 48.609751 53.219336
155 52 2 -0.325600 49.408906 46.661556 52.881676
156 52 2 -0.325600 51.319227 50.557946 53.556996
157 53 1 0.651200 21.387318 0.471245 21.262989
158 53 2 -0.325600 19.304308 0.398165 20.571949
159 53 2 -0.325600 23.470329 0.544324 21.954029
160 54 1 0.651200 17.492794 39.232066 8.301533
161 54 2 -0.325600 15.548135 40.192602 7.958775
162 54 2 -0.325600 19.437452 38.271530 8.644292
163 55 1 0.651200 25.461214 32.031906 37.737982
164 55 2 -0.325600 24.782639 33.648808 39.059714
165 55 2 -0.325600 26.139790 30.415004 36.416251
166 56 1 0.651200 28.371341 53.556811 21.592520
167 56 2 -0.325600 26.175725 53.556838 21.559666
168 56 2 -0.325600 30.566957 53.556785 21.625374
169 57 1 0.651200 14.273717 32.349145 53.161117
170 57 2 -0.325600 12.810744 30.761171 53.560942
171 57 2 -0.325600 15.736690 33.937119 52.761293
172 58 1 0.651200 14.694536 17.122842 46.018793
173 58 2 -0.325600 16.617778 17.771161 45.180562
174 58 2 -0.325600 12.771294 16.474523 46.857025
175 59 1 0.651200 17.381765 47.080287 18.856281
176 59 2 -0.325600 17.429958 48.457418 17.146603
177 59 2 -0.325600 17.333573 45.703156 20.565958
178 60 1 0.651200 16.986256 51.006020 27.155564
179 60 2 -0.325600 17.995412 50.138844 28.902396
180 60 2 -0.325600 15.977101 51.873196 25.408732
181 61 1 0.651200 47.138543 43.206320 25.819008
182 61 2 -0.325600 47.822355 42.789221 23.774445
183 61 2 -0.325600 46.454730 43.623419 27.863571
184 62 1 0.651200 7.857130 13.098261 21.144613
185 62 2 -0.325600 8.650117 11.316502 22.153729
186 62 2 -0.325600 7.064143 14.880020 20.135496
187 63 1 0.651200 40.780240 44.644667 3.215745
188 63 2 -0.325600 41.117126 43.754891 1.236700
189 63 2 -0.325600 40.443354 45.534442 5.194789
190 64 1 0.651200 30.768493 51.011868 16.394149
191 64 2 -0.325600 28.894801 52.153060 16.300504
192 64 2 -0.325600 32.642186 49.870677 16.487793
193 65 1 0.651200 41.757476 45.914669 43.868882
194 65 2 -0.325600 41.473107 47.780937 42.747281
195 65 2 -0.325600 42.041845 44.048401 44.990482
196 66 1 0.651200 38.147890 15.761910 12.179171
197 66 2 -0.325600 36.488393 15.902403 13.610304
198 66 2 -0.325600 39.807386 15.621416 10.748038
199 67 1 0.651200 14.004370 32.087370 13.003912
200 67 2 -0.325600 12.371861 30.737971 13.583435
201 67 2 -0.325600 15.636880 33.436768 12.424389
202 68 1 0.651200 32.888572 1.571523 34.250655
203 68 2 -0.325600 30.784723 1.119803 33.812955
204 68 2 -0.325600 34.992420 2.023242 34.688356
205 69 1 0.651200 32.917331 16.442230 48.327151
206 69 2 -0.325600 33.044376 18.296308 49.496795
207 69 2 -0.325600 32.790286 14.588153 47.157507
208 70 1 0.651200 9.803385 20.210955 34.912337
209 70 2 -0.325600 8.022382 21.441364 35.281025
210 70 2 -0.325600 11.584388 18.980545 34.543648
211 71 1 0.651200 42.760559 52.166363 20.417044
212 71 2 -0.325600 42.860072 53.556977 18.720548
213 71 2 -0.325600 42.661046 50.775749 22.113540
214 72 1 0.651200 37.263867 26.299132 43.437499
215 72 2 -0.325600 37.613999 24.856778 41.819218
216 72 2 -0.325600 36.913735 27.741485 45.055780
217 73 1 0.651200 47.334307 1.772237 25.484692
218 73 2 -0.325600 45.185473 2.195010 25.644633
219 73 2 -0.325600 49.483142 1.349463 25.324750
220 74 1 0.651200 11.667157 25.668799 11.192306
221 74 2 -0.325600 9.732731 25.792271 12.224081
222 74 2 -0.325600 13.601583 25.545327 10.160530
223 75 1 0.651200 7.412655 33.606959 2.237342
224 75 2 -0.325600 8.233266 31.778962 1.339102
225 75 2 -0.325600 6.592044 35.434956 3.135582
226 76 1 0.651200 46.596427 7.072253 50.376483
227 76 2 -0.325600 44.868388 5.732322 50.175791
228 76 2 -0.325600 48.324466 8.412183 50.577174
229 77 1 0.651200 18.270521 32.729726 39.403223
230 77 2 -0.325600 18.287075 34.810585 38.702109
231 77 2 -0.325600 18.253967 30.648867 40.104338
232 78 1 0.651200 50.934000 24.117485 43.672215
233 78 2 -0.325600 52.432657 24.299266 42.077602
234 78 2 -0.325600 49.435342 23.935704 45.266828
235 79 1 0.651200 1.031416 18.396528 13.705340
236 79 2 -0.325600 2.061382 16.762811 14.750304
237 79 2 -0.325600 0.001451 20.030245 12.660377
238 80 1 0.651200 35.300882 24.779497 7.915722
239 80 2 -0.325600 33.564455 23.458938 7.665211
240 80 2 -0.325600 37.037309 26.100055 8.166232
241 81 1 0.651200 12.050743 42.758738 47.125076
242 81 2 -0.325600 13.924727 43.722129 46.507116
243 81 2 -0.325600 10.176760 41.795348 47.743036
244 82 1 0.651200 3.611099 40.329940 11.260855
245 82 2 -0.325600 5.595632 40.291843 10.321713
246 82 2 -0.325600 1.626566 40.368038 12.199997
247 83 1 0.651200 25.725160 2.119393 1.254872
248 83 2 -0.325600 27.692278 1.144997 1.307876
249 83 2 -0.325600 23.758043 3.093789 1.201868
250 84 1 0.651200 13.913563 46.605907 32.187284
251 84 2 -0.325600 12.023610 46.122201 31.179358
252 84 2 -0.325600 15.803517 47.089613 33.195209
253 85 1 0.651200 7.979406 10.634172 12.188386
254 85 2 -0.325600 6.975011 11.336112 10.366222
255 85 2 -0.325600 8.983800 9.932232 14.010551
256 86 1 0.651200 26.732448 9.589799 25.470178
257 86 2 -0.325600 27.385808 7.599465 26.128589
258 86 2 -0.325600 26.079089 11.580132 24.811767
259 87 1 0.651200 33.305697 1.863186 49.220284
260 87 2 -0.325600 31.928893 3.040158 47.978931
261 87 2 -0.325600 34.682501 0.686214 50.461637
262 88 1 0.651200 20.404425 31.424660 32.561392
263 88 2 -0.325600 20.976551 30.000581 34.131895
264 88 2 -0.325600 19.832298 32.848738 30.990888
265 89 1 0.651200 22.036720 26.332764 29.407263
266 89 2 -0.325600 20.161156 26.977661 28.464833
267 89 2 -0.325600 23.912285 25.687867 30.349692
268 90 1 0.651200 29.273712 9.820751 18.727323
269 90 2 -0.325600 28.834185 10.176693 16.605547
270 90 2 -0.325600 29.713239 9.464809 20.849098
271 91 1 0.651200 51.681139 9.909067 22.008364
272 91 2 -0.325600 53.556946 9.379086 20.997288
273 91 2 -0.325600 49.805331 10.439049 23.019440
274 92 1 0.651200 22.150352 12.728389 50.848570
275 92 2 -0.325600 21.576481 13.506658 48.877079
276 92 2 -0.325600 22.724223 11.950119 52.820062
277 93 1 0.651200 0.000834 49.912861 34.540736
278 93 2 -0.325600 0.005532 47.962620 35.549867
279 93 2 -0.325600 -0.003863 51.863103 33.531605
280 94 1 0.651200 27.464214 21.249666 11.304420
281 94 2 -0.325600 29.355620 22.328771 11.021709
282 94 2 -0.325600 25.572807 20.170562 11.587130
283 95 1 0.651200 29.051180 27.800500 29.523101
284 95 2 -0.325600 30.343433 26.628970 30.857046
285 95 2 -0.325600 27.758927 28.972030 28.189156
286 96 1 0.651200 1.008330 28.226227 31.271808
287 96 2 -0.325600 0.000154 29.361305 32.858310
288 96 2 -0.325600 2.016506 27.091150 29.685305
289 97 1 0.651200 53.427021 8.327536 48.525682
290 97 2 -0.325600 53.296935 9.890264 46.988552
291 97 2 -0.325600 53.557107 6.764808 50.062811
292 98 1 0.651200 11.452101 33.755375 7.491700
293 98 2 -0.325600 13.095555 35.091864 6.913194
294 98 2 -0.325600 9.808647 32.418887 8.070205
295 99 1 0.651200 8.109230 50.239043 29.075480
296 99 2 -0.325600 7.468702 48.150509 28.852861
297 99 2 -0.325600 8.749757 52.327577 29.298099
298 100 1 0.651200 47.510943 42.383536 9.514597
299 100 2 -0.325600 49.136321 43.762215 8.986201
300 100 2 -0.325600 45.885566 41.004858 10.042992
301 101 1 0.651200 41.979991 6.566739 32.401591
302 101 2 -0.325600 43.649220 7.984464 32.561410
303 101 2 -0.325600 40.310762 5.149014 32.241772
304 102 1 0.651200 45.957897 18.798964 19.992396
305 102 2 -0.325600 45.471190 19.999613 18.219441
306 102 2 -0.325600 46.444604 17.598314 21.765350
307 103 1 0.651200 3.771557 53.556997 39.668399
308 103 2 -0.325600 4.044330 53.556995 41.847253
309 103 2 -0.325600 3.498784 53.556999 37.489545
310 104 1 0.651200 0.877403 25.999735 37.933979
311 104 2 -0.325600 0.000181 23.987113 37.974527
312 104 2 -0.325600 1.754625 28.012357 37.893431
313 105 1 0.651200 45.327668 30.674241 34.302456
314 105 2 -0.325600 44.113233 31.928392 35.634395
315 105 2 -0.325600 46.542103 29.420090 32.970516
316 106 1 0.651200 36.436339 32.264472 7.292503
317 106 2 -0.325600 35.964546 32.963510 5.265049
318 106 2 -0.325600 36.908131 31.565434 9.319956
319 107 1 0.651200 30.768016 28.290444 19.364121
320 107 2 -0.325600 31.518612 29.287723 21.170733
321 107 2 -0.325600 30.017420 27.293165 17.557508
322 108 1 0.651200 37.800284 53.134792 29.540479
323 108 2 -0.325600 39.483319 53.531641 28.187070
324 108 2 -0.325600 36.117250 52.737942 30.893888
325 109 1 0.651200 38.871273 17.340662 21.199307
326 109 2 -0.325600 38.740158 17.030780 19.029378
327 109 2 -0.325600 39.002388 17.650544 23.369236
328 110 1 0.651200 20.556107 19.159084 5.769654
329 110 2 -0.325600 19.974769 18.387816 3.797599
330 110 2 -0.325600 21.137444 19.930352 7.741709
331 111 1 0.651200 44.747979 14.646102 38.169679
332 111 2 -0.325600 42.734595 15.521575 38.210199
333 111 2 -0.325600 46.761363 13.770629 38.129159
334 112 1 0.651200 47.536561 15.027844 32.160768
335 112 2 -0.325600 49.477708 14.953494 33.184600
336 112 2 -0.325600 45.595414 15.102193 31.136936
337 113 1 0.651200 53.556956 39.784987 41.849336
338 113 2 -0.325600 53.556956 37.589479 41.809915
339 113 2 -0.325600 53.556956 41.980495 41.888756
340 114 1 0.651200 12.965558 11.406825 40.037454
341 114 2 -0.325600 13.735580 9.355714 40.185178
342 114 2 -0.325600 12.195536 13.457935 39.889730
343 115 1 0.651200 30.536475 25.518974 36.683451
344 115 2 -0.325600 31.148071 27.330649 37.763078
345 115 2 -0.325600 29.924880 23.707299 35.603824
346 116 1 0.651200 20.717553 48.623135 46.940122
347 116 2 -0.325600 21.141037 48.147085 49.041513
348 116 2 -0.325600 20.294068 49.099185 44.838730
349 117 1 0.651200 17.172911 40.648671 14.708773
350 117 2 -0.325600 17.027985 42.631843 15.640349
351 117 2 -0.325600 17.317838 38.665498 13.777198
352 118 1 0.651200 53.535972 11.499138 13.975430
353 118 2 -0.325600 53.556891 13.686628 14.165844
354 118 2 -0.325600 53.515053 9.311647 13.785017
355 119 1 0.651200 0.892119 25.963677 43.717011
356 119 2 -0.325600 1.784227 27.944670 43.398234
357 119 2 -0.325600 0.000011 23.982683 44.035788
358 120 1 0.651200 20.863580 9.812624 28.935831
359 120 2 -0.325600 20.063189 7.804255 29.320071
360 120 2 -0.325600 21.663970 11.820992 28.551592
361 121 1 0.651200 7.329821 34.632952 25.732879
362 121 2 -0.325600 6.488935 32.645122 25.328833
363 121 2 -0.325600 8.170707 36.620782 26.136924
364 122 1 0.651200 11.845424 49.739070 16.404467
365 122 2 -0.325600 12.685761 51.748496 16.683490
366 122 2 -0.325600 11.005088 47.729645 16.125445
367 123 1 0.651200 43.674699 39.096095 33.218160
368 123 2 -0.325600 43.959971 37.308584 34.461235
369 123 2 -0.325600 43.389426 40.883606 31.975086
370 124 1 0.651200 37.049658 52.913658 38.336911
371 124 2 -0.325600 35.011516 52.270471 37.832831
372 124 2 -0.325600 39.087800 53.556844 38.840992
373 125 1 0.651200 51.456527 33.299930 27.174198
374 125 2 -0.325600 50.220625 34.872046 26.267110
375 125 2 -0.325600 52.692429 31.727815 28.081287
376 126 1 0.651200 32.057227 14.819545 29.777463
377 126 2 -0.325600 32.245243 15.781229 27.812361
378 126 2 -0.325600 31.869211 13.857861 31.742564
379 127 1 0.651200 48.749235 35.511477 10.819788
380 127 2 -0.325600 47.648826 34.328744 12.307084
381 127 2 -0.325600 49.849645 36.694210 9.332491
382 128 1 0.651200 23.691926 38.611920 53.556566
383 128 2 -0.325600 24.306317 40.720079 53.556403
384 128 2 -0.325600 23.077535 36.503762 53.556730
385 129 1 0.651200 17.830742 2.696029 39.232524
386 129 2 -0.325600 18.694825 0.749731 39.768337
387 129 2 -0.325600 16.966660 4.642327 38.696712
388 130 1 0.651200 25.358284 26.340871 42.909704
389 130 2 -0.325600 25.387001 27.262016 40.916597
390 130 2 -0.325600 25.329567 25.419726 44.902812
391 131 1 0.651200 5.602325 46.123270 13.771526
392 131 2 -0.325600 5.456011 47.513699 12.078272
393 131 2 -0.325600 5.748639 44.732840 15.464780
394 132 1 0.651200 50.288369 31.373268 1.341823
395 132 2 -0.325600 51.701235 32.385756 0.000000
396 132 2 -0.325600 48.875503 30.360780 2.683645
397 133 1 0.651200 26.841487 15.761989 3.927536
398 133 2 -0.325600 26.543176 14.041385 2.596243
399 133 2 -0.325600 27.139798 17.482593 5.258830
400 134 1 0.651200 12.880471 39.352274 24.909298
401 134 2 -0.325600 12.471898 40.803955 26.505387
402 134 2 -0.325600 13.289045 37.900594 23.313209
403 135 1 0.651200 39.038772 2.444895 17.474301
404 135 2 -0.325600 37.774597 1.367034 18.910228
405 135 2 -0.325600 40.302948 3.522755 16.038374
406 136 1 0.651200 37.174024 18.343926 36.317584
407 136 2 -0.325600 35.746480 19.410045 37.601063
408 136 2 -0.325600 38.601568 17.277806 35.034105
409 137 1 0.651200 47.115106 0.685037 30.871709
410 137 2 -0.325600 45.040242 1.368985 31.092991
411 137 2 -0.325600 49.189969 0.001088 30.650428
412 138 1 0.651200 35.358770 51.092857 23.240082
413 138 2 -0.325600 35.982035 52.605753 21.775672
414 138 2 -0.325600 34.735506 49.579962 24.704492
415 139 1 0.651200 53.108149 42.833797 36.059740
416 139 2 -0.325600 52.659299 44.948941 36.442505
417 139 2 -0.325600 53.557000 40.718653 35.676975
418 140 1 0.651200 29.453866 40.113535 24.888737
419 140 2 -0.325600 27.641684 40.307574 23.663929
420 140 2 -0.325600 31.266048 39.919495 26.113545
421 141 1 0.651200 10.556467 32.862178 39.820643
422 141 2 -0.325600 8.816251 34.175047 40.084898
423 141 2 -0.325600 12.296684 31.549309 39.556389
424 142 1 0.651200 16.686339 45.066231 40.708683
425 142 2 -0.325600 17.474761 43.116150 41.339066
426 142 2 -0.325600 15.897917 47.016313 40.078300
427 143 1 0.651200 50.104374 18.335820 27.679756
428 143 2 -0.325600 49.173423 16.610101 26.691304
429 143 2 -0.325600 51.035324 20.061539 28.668207
430 144 1 0.651200 46.626939 11.584817 17.590766
431 144 2 -0.325600 48.757351 11.068579 17.461725
432 144 2 -0.325600 44.496527 12.101056 17.719807
433 145 1 0.651200 48.189802 17.370717 43.166696
434 145 2 -0.325600 49.413631 15.608116 42.700553
435 145 2 -0.325600 46.965973 19.133319 43.632838
436 146 1 0.651200 25.018099 15.749870 30.461382
437 146 2 -0.325600 23.467170 16.959480 31.437740
438 146 2 -0.325600 26.569028 14.540260 29.485024
439 147 1 0.651200 14.836751 33.539270 34.354477
440 147 2 -0.325600 14.942694 35.731148 34.433569
441 147 2 -0.325600 14.730809 31.347392 34.275385
442 148 1 0.651200 9.183346 27.987315 43.974078
443 148 2 -0.325600 7.213917 28.832263 44.452851
444 148 2 -0.325600 11.152774 27.142367 43.495305
445 149 1 0.651200 23.906462 19.761839 50.013257
446 149 2 -0.325600 24.139692 17.850992 51.069703
447 149 2 -0.325600 23.673233 21.672686 48.956812
448 150 1 0.651200 5.025094 2.089166 19.805943
449 150 2 -0.325600 4.586656 2.741434 17.755546
450 150 2 -0.325600 5.463532 1.436899 21.856341
451 151 1 0.651200 45.431270 25.504100 7.751392
452 151 2 -0.325600 46.645569 23.902737 6.866562
453 151 2 -0.325600 44.216971 27.105463 8.636222
454 152 1 0.651200 49.211924 50.779277 41.610207
455 152 2 -0.325600 48.087812 48.998966 40.986768
456 152 2 -0.325600 50.336036 52.559587 42.233647
457 153 1 0.651200 1.737290 33.157567 41.645095
458 153 2 -0.325600 3.139436 33.015746 39.961146
459 153 2 -0.325600 0.335144 33.299389 43.329043
460 154 1 0.651200 6.924522 24.131237 28.624676
461 154 2 -0.325600 7.112768 25.960314 27.424322
462 154 2 -0.325600 6.736275 22.302160 29.825031
463 155 1 0.651200 33.385797 10.833250 9.996648
464 155 2 -0.325600 31.461481 10.199248 10.843326
465 155 2 -0.325600 35.310112 11.467252 9.149970
466 156 1 0.651200 50.476235 51.611755 16.108649
467 156 2 -0.325600 49.390866 53.406112 16.759855
468 156 2 -0.325600 51.561603 49.817398 15.457443
469 157 1 0.651200 27.375351 49.695022 9.952671
470 157 2 -0.325600 25.714608 48.368104 9.402189
471 157 2 -0.325600 29.036095 51.021940 10.503153
472 158 1 0.651200 13.742209 20.080118 17.497698
473 158 2 -0.325600 15.231239 21.145519 16.285461
474 158 2 -0.325600 12.253179 19.014716 18.709936
475 159 1 0.651200 4.773546 36.744679 45.657571
476 159 2 -0.325600 5.583953 37.005310 43.633436
477 159 2 -0.325600 3.963139 36.484047 47.681706
478 160 1 0.651200 21.938205 30.880526 52.771535
479 160 2 -0.325600 19.929422 30.467858 53.556585
480 160 2 -0.325600 23.946989 31.293194 51.986486
481 161 1 0.651200 -0.000034 51.292963 6.355775
482 161 2 -0.325600 -0.000017 50.422777 8.371857
483 161 2 -0.325600 -0.000052 52.163148 4.339693
484 162 1 0.651200 20.814482 52.669034 22.407611
485 162 2 -0.325600 21.300640 53.548322 24.360126
486 162 2 -0.325600 20.328324 51.789746 20.455097
487 163 1 0.651200 23.490451 24.591810 4.219629
488 163 2 -0.325600 21.982162 25.537223 5.505346
489 163 2 -0.325600 24.998740 23.646398 2.933911
490 164 1 0.651200 21.886425 49.870795 35.737454
491 164 2 -0.325600 21.030367 48.750454 34.054062
492 164 2 -0.325600 22.742483 50.991136 37.420846
493 165 1 0.651200 31.001045 28.708528 44.738093
494 165 2 -0.325600 31.810405 29.818066 43.024713
495 165 2 -0.325600 30.191685 27.598991 46.451473
496 166 1 0.651200 19.084285 53.117139 9.922705
497 166 2 -0.325600 16.951690 53.556028 9.637708
498 166 2 -0.325600 21.216880 52.678250 10.207702
499 167 1 0.651200 44.186314 28.249106 42.581478
500 167 2 -0.325600 44.666833 30.186434 41.666234
501 167 2 -0.325600 43.705794 26.311778 43.496721
502 168 1 0.651200 26.164852 51.804073 46.952826
503 168 2 -0.325600 27.016930 50.051414 47.964734
504 168 2 -0.325600 25.312773 53.556733 45.940918
505 169 1 0.651200 19.375962 25.121335 41.972464
506 169 2 -0.325600 19.845144 26.599448 43.527090
507 169 2 -0.325600 18.906781 23.643223 40.417838
508 170 1 0.651200 19.608110 40.474918 21.285053
509 170 2 -0.325600 17.541434 40.207107 20.593000
510 170 2 -0.325600 21.674786 40.742730 21.977106
511 171 1 0.651200 12.361822 39.797752 52.851204
512 171 2 -0.325600 14.357369 40.696393 53.030215
513 171 2 -0.325600 10.366275 38.899110 52.672193
514 172 1 0.651200 43.045967 38.033820 1.886426
515 172 2 -0.325600 42.035357 38.526021 3.772750
516 172 2 -0.325600 44.056576 37.541619 0.000103
517 173 1 0.651200 38.521702 45.844037 49.575052
518 173 2 -0.325600 38.424899 47.711483 48.423930
519 173 2 -0.325600 38.618505 43.976590 50.726174
520 174 1 0.651200 37.907003 30.047512 24.683081
521 174 2 -0.325600 36.866133 28.124287 24.484065
522 174 2 -0.325600 38.947873 31.970736 24.882096
523 175 1 0.651200 24.258879 12.300473 11.134259
524 175 2 -0.325600 25.030444 10.986983 12.715790
525 175 2 -0.325600 23.487313 13.613964 9.552728
526 176 1 0.651200 24.936360 44.274264 30.260433
527 176 2 -0.325600 26.831797 43.169350 30.351484
528 176 2 -0.325600 23.040922 45.379178 30.169382
529 177 1 0.651200 23.505336 32.252918 0.942415
530 177 2 -0.325600 24.297784 34.071325 1.884345
531 177 2 -0.325600 22.712887 30.434511 0.000486
532 178 1 0.651200 36.522455 6.808414 53.555995
533 178 2 -0.325600 35.001996 5.224116 53.552763
534 178 2 -0.325600 38.042915 8.392713 53.559227
535 179 1 0.651200 11.665278 7.740911 47.905871
536 179 2 -0.325600 9.705440 8.714080 47.722060
537 179 2 -0.325600 13.625116 6.767742 48.089682
538 180 1 0.651200 35.258754 36.523258 50.208966
539 180 2 -0.325600 33.899570 34.816222 49.963090
540 180 2 -0.325600 36.617939 38.230294 50.454842
541 181 1 0.651200 3.041923 6.667560 14.011100
542 181 2 -0.325600 1.894168 7.841140 15.469585
543 181 2 -0.325600 4.189678 5.493980 12.552616
544 182 1 0.651200 38.901996 34.957228 31.270197
545 182 2 -0.325600 40.234939 33.231801 31.530916
546 182 2 -0.325600 37.569053 36.682656 31.009478
547 183 1 0.651200 1.836718 14.301183 9.311985
548 183 2 -0.325600 3.017135 15.898202 8.374993
549 183 2 -0.325600 0.656300 12.704164 10.248977
550 184 1 0.651200 16.108795 14.123510 52.323943
551 184 2 -0.325600 15.562857 15.841351 53.578050
552 184 2 -0.325600 16.654732 12.405669 51.069836
553 185 1 0.651200 37.596841 29.887331 38.823320
554 185 2 -0.325600 36.408318 28.870083 37.282401
555 185 2 -0.325600 38.785363 30.904579 40.364238
556 186 1 0.651200 44.048760 32.644712 27.608627
557 186 2 -0.325600 43.785009 30.471178 27.441300
558 186 2 -0.325600 44.312511 34.818245 27.775955
559 187 1 0.651200 34.713567 11.502263 25.166645
560 187 2 -0.325600 32.747940 10.540992 25.351244
561 187 2 -0.325600 36.679195 12.463534 24.982047
562 188 1 0.651200 36.846719 12.813128 40.256087
563 188 2 -0.325600 38.803064 11.821382 40.360807
564 188 2 -0.325600 34.890375 13.804875 40.151368
565 189 1 0.651200 6.068184 30.115691 16.588312
566 189 2 -0.325600 6.294326 30.768215 14.503874
567 189 2 -0.325600 5.842041 29.463167 18.672749
568 190 1 0.651200 13.241973 35.977988 43.931321
569 190 2 -0.325600 11.217599 36.730762 44.327615
570 190 2 -0.325600 15.266348 35.225214 43.535027
571 191 1 0.651200 31.069661 50.926453 42.484074
572 191 2 -0.325600 32.533448 51.198296 44.098149
573 191 2 -0.325600 29.605874 50.654611 40.869998
574 192 1 0.651200 13.862518 33.702213 27.235308
575 192 2 -0.325600 14.981857 34.509922 28.943083
576 192 2 -0.325600 12.743179 32.894504 25.527533
577 193 1 0.651200 41.665065 48.200288 29.974859
578 193 2 -0.325600 39.748199 47.179327 29.650709
579 193 2 -0.325600 43.581930 49.221250 30.299010
580 194 1 0.651200 43.594480 7.503291 39.132216
581 194 2 -0.325600 45.709235 8.093352 39.170303
582 194 2 -0.325600 41.479726 6.913230 39.094130
583 195 1 0.651200 22.075994 43.057667 44.364569
584 195 2 -0.325600 20.896800 42.613077 46.162805
585 195 2 -0.325600 23.255188 43.502256 42.566334
586 196 1 0.651200 32.990821 31.632366 29.745353
587 196 2 -0.325600 34.767290 30.360122 29.527720
588 196 2 -0.325600 31.214352 32.904609 29.962986
589 197 1 0.651200 26.432524 35.717803 14.051502
590 197 2 -0.325600 27.910249 34.906383 15.458533
591 197 2 -0.325600 24.954798 36.529223 12.644472
592 198 1 0.651200 40.112831 47.423762 14.242934
593 198 2 -0.325600 38.007220 48.040961 14.328234
594 198 2 -0.325600 42.218442 46.806562 14.157634
595 199 1 0.651200 0.000030 1.796834 22.376525
596 199 2 -0.325600 0.000030 0.000031 21.114261
597 199 2 -0.325600 0.000030 3.593636 23.638790
598 200 1 0.651200 9.551372 32.546084 49.403590
599 200 2 -0.325600 10.489477 34.529899 49.324561
600 200 2 -0.325600 8.613268 30.562268 49.482619
601 201 1 0.651200 13.364892 2.680674 25.599361
602 201 2 -0.325600 11.820363 4.223885 25.833328
603 201 2 -0.325600 14.909421 1.137463 25.365393
604 202 1 0.651200 37.766135 7.987688 47.267918
605 202 2 -0.325600 36.150066 8.947433 46.132567
606 202 2 -0.325600 39.382204 7.027943 48.403269
607 203 1 0.651200 41.780941 21.204214 42.818768
608 203 2 -0.325600 40.984202 21.155217 44.864401
609 203 2 -0.325600 42.577680 21.253211 40.773134
610 204 1 0.651200 12.528925 35.268557 17.864065
611 204 2 -0.325600 10.857984 33.843859 17.862448