1400
# CELL(abcABC):   59.31580    59.31580    59.31580    90.00000    90.00000    90.00000  Step:         300  Bead:       0 x_centroid{angstrom}  cell{atomic_unit}
       C  2.64434e+01  2.19158e+01  2.38797e+01
       O  2.60298e+01  2.09446e+01  2.43686e+01
       O  2.68646e+01  2.28798e+01  2.33840e+01
       C  1.02889e+00  2.94449e+01  2.26278e+01
       O  1.16943e+00  2.92244e+01  2.14948e+01
       O  8.88195e-01  2.96711e+01  2.37594e+01
       C  1.46991e+01  2.08937e+01  1.72426e+00
       O  1.46228e+01  2.00357e+01  2.50563e+00
       O  1.47768e+01  2.17470e+01  9.38136e-01
       C  1.83306e+01  1.75541e+01  5.04760e+00
       O  1.73405e+01  1.81632e+01  5.06212e+00
       O  1.93202e+01  1.69445e+01  5.03403e+00
       C  8.16022e+00  2.18968e+01  1.47058e+00
       O  7.49763e+00  2.24710e+01  7.07206e-01
       O  8.82278e+00  2.13180e+01  2.23138e+00
       C  1.60079e+01  4.81468e+00  1.70785e+01
       O  1.49652e+01  5.00974e+00  1.66005e+01
       O  1.70516e+01  4.61142e+00  1.75487e+01
       C  2.79195e+01  2.92067e+01  5.01050e+00
       O  2.74823e+01  2.99647e+01  4.24485e+00
       O  2.83630e+01  2.84577e+01  5.78150e+00
       C  1.09303e+01  1.81005e+01  9.17704e+00
       O  1.16611e+01  1.73361e+01  9.66281e+00
       O  1.01932e+01  1.88655e+01  8.70511e+00
       C  1.20106e+01  8.37094e+00  7.55063e+00
       O  1.29242e+01  8.21491e+00  6.84848e+00
       O  1.10947e+01  8.52709e+00  8.25072e+00
       C  2.96028e+01  2.02637e+01  2.19579e+01
       O  3.06369e+01  2.03898e+01  2.14420e+01
       O  2.85706e+01  2.01493e+01  2.24805e+01
       C  1.64317e+01  6.09538e+00  2.98783e+01
       O  1.60734e+01  5.78313e+00  2.88167e+01
       O  1.67962e+01  6.40387e+00  3.09383e+01
       C  2.46534e+01  3.46998e+00  1.16004e+01
       O  2.57837e+01  3.59801e+00  1.18413e+01
       O  2.35220e+01  3.35062e+00  1.13610e+01
       C  4.92312e+00  2.96699e+01  1.49446e+00
       O  4.59451e+00  2.88895e+01  6.97700e-01
       O  5.25637e+00  3.04473e+01  2.29113e+00
       C  1.81251e+01  1.11856e+01  9.58319e+00
       O  1.90476e+01  1.18280e+01  9.28250e+00
       O  1.71974e+01  1.05527e+01  9.88281e+00
       C  1.64412e+01  9.24695e+00  2.36334e+01
       O  1.69140e+01  9.90765e+00  2.44653e+01
       O  1.59606e+01  8.58267e+00  2.28089e+01
       C  2.91187e+01  6.50946e+00  3.03618e+01
       O  2.99099e+01  5.67638e+00  3.05398e+01
       O  2.83222e+01  7.33725e+00  3.01779e+01
       C  1.44546e+01  1.45436e+01  1.92961e+01
       O  1.44937e+01  1.53307e+01  2.01520e+01
       O  1.44079e+01  1.37475e+01  1.84506e+01
       C  1.82039e+01  2.93203e+01  3.19058e+01
       O  1.72590e+01  2.87105e+01  3.16085e+01
       O  1.91417e+01  2.99400e+01  3.22010e+01
       C  1.93345e+01  2.57889e+01  1.14908e+01
       O  2.02762e+01  2.61931e+01  1.09411e+01
       O  1.83934e+01  2.53887e+01  1.20440e+01
       C  1.30981e+01  1.19305e+01  2.88234e+01
       O  1.33496e+01  1.13167e+01  2.97786e+01
       O  1.28511e+01  1.25461e+01  2.78686e+01
       C  4.15220e+00  1.74347e+01  1.96183e+01
       O  4.80746e+00  1.73355e+01  1.86635e+01
       O  3.48597e+00  1.75193e+01  2.05675e+01
       C  1.74897e+01  1.29490e+01  2.58010e+01
       O  1.86386e+01  1.28716e+01  2.59656e+01
       O  1.63435e+01  1.30272e+01  2.56284e+01
       C  1.22848e+01  2.30999e+01  1.95502e+01
       O  1.23973e+01  2.28468e+01  2.06800e+01
       O  1.21659e+01  2.33418e+01  1.84199e+01
       C  1.94119e+01  1.94915e+01  2.11963e+01
       O  1.93530e+01  2.06002e+01  2.15413e+01
       O  1.94829e+01  1.83847e+01  2.08476e+01
       C  2.34856e+01  8.90705e+00  2.83119e+01
       O  2.46054e+01  9.08472e+00  2.80530e+01
       O  2.23611e+01  8.73328e+00  2.85511e+01
       C  2.18393e+01  5.17445e+00  6.46546e+00
       O  2.15094e+01  4.88237e+00  5.38986e+00
       O  2.21701e+01  5.46902e+00  7.54053e+00
       C  1.76404e+01  2.91052e+01  1.21056e+01
       O  1.66114e+01  2.96377e+01  1.20066e+01
       O  1.86691e+01  2.85714e+01  1.21974e+01
       C  1.01196e+01  2.06263e+01  2.78874e+01
       O  1.10686e+01  2.00656e+01  2.75165e+01
       O  9.18104e+00  2.11930e+01  2.82731e+01
       C  2.13712e+01  2.60601e+01  3.95773e+00
       O  2.16252e+01  2.49465e+01  4.17537e+00
       O  2.11077e+01  2.71725e+01  3.74664e+00
       C  2.56656e+01  1.66538e+01  3.70260e-01
       O  2.49686e+01  1.74612e+01 -9.32518e-02
       O  2.63737e+01  1.58536e+01  8.28892e-01
       C  6.79483e+00  2.98491e+01  2.01143e+01
       O  6.19787e+00  3.00778e+01  2.10852e+01
       O  7.39054e+00  2.96165e+01  1.91432e+01
       C  2.11237e+01  2.19102e+01  1.92964e+01
       O  2.20721e+01  2.22452e+01  1.98785e+01
       O  2.01677e+01  2.15748e+01  1.87260e+01
       C  2.62383e+01  2.90460e+01  1.69381e+00
       O  2.69366e+01  2.97657e+01  1.10388e+00
       O  2.55340e+01  2.83359e+01  2.28734e+00
       C  1.54090e+01  2.82209e+00  2.89941e+01
       O  1.56742e+01  2.56963e+00  2.78904e+01
       O  1.51468e+01  3.07690e+00  3.00981e+01
       C  2.51601e+00  1.45815e+01  1.25752e+00
       O  2.43156e+00  1.37888e+01  4.10847e-01
       O  2.59941e+00  1.53775e+01  2.10053e+00
       C  3.56714e+00  2.70385e+01  2.03711e+01
       O  2.55685e+00  2.64950e+01  2.05600e+01
       O  4.58577e+00  2.75740e+01  2.02034e+01
       C  1.76609e+01  2.42210e+01  6.87615e+00
       O  1.82494e+01  2.33711e+01  6.34327e+00
       O  1.70672e+01  2.50702e+01  7.40422e+00
       C  1.25480e+01  2.67079e+01  5.98034e-01
       O  1.26254e+01  2.55532e+01  7.09880e-01
       O  1.24594e+01  2.78626e+01  4.93664e-01
       C  2.27613e+01  2.97355e+01  3.37241e+00
       O  2.29542e+01  2.97959e+01  4.51839e+00
       O  2.25775e+01  2.96759e+01  2.22614e+00
       C  3.88947e+00  2.96875e+01  4.81580e+00
       O  3.48404e+00  2.87603e+01  4.24072e+00
       O  4.28178e+00  3.06275e+01  5.37588e+00
       C  2.78756e+01  8.60446e+00  5.18937e+00
       O  2.73651e+01  7.58597e+00  4.95749e+00
       O  2.83853e+01  9.62155e+00  5.42465e+00
       C  1.52063e+01  5.73036e+00  2.22505e+01
       O  1.63125e+01  5.61111e+00  2.19135e+01
       O  1.41004e+01  5.84366e+00  2.25931e+01
       C  1.23381e+01  1.58187e+01  3.07809e+01
       O  1.16228e+01  1.67352e+01  3.07587e+01
       O  1.30467e+01  1.48980e+01  3.08141e+01
       C  2.57642e+01  4.55990e+00  3.41476e+00
       O  2.64514e+01  5.32514e+00  2.87401e+00
       O  2.50834e+01  3.78563e+00  3.95319e+00
       C  2.93502e+01  2.65230e+01  2.43871e+00
       O  2.84562e+01  2.71672e+01  2.81138e+00
       O  3.02459e+01  2.58811e+01  2.06706e+00
       C  2.97525e+00  2.35309e+01  1.35996e+01
       O  4.09274e+00  2.32659e+01  1.34184e+01
       O  1.85927e+00  2.37957e+01  1.37889e+01
       C  2.22453e+01  1.19142e+01  2.64798e+01
       O  2.20153e+01  1.08260e+01  2.61408e+01
       O  2.24678e+01  1.30041e+01  2.68204e+01
       C  1.61931e+01  5.07554e+00  2.85357e+00
       O  1.73205e+01  4.96064e+00  3.11594e+00
       O  1.50652e+01  5.18138e+00  2.59329e+00
       C  1.58282e+01  1.11137e+01  1.26195e+01
       O  1.68551e+01  1.14590e+01  1.30258e+01
       O  1.47785e+01  1.07849e+01  1.22258e+01
       C  2.29280e+01  1.48765e+01  2.25314e+01
       O  2.29979e+01  1.38411e+01  2.20056e+01
       O  2.28654e+01  1.59093e+01  2.30614e+01
       C  2.54983e+01  1.92269e+01  1.09409e+01
       O  2.52372e+01  2.03051e+01  1.05967e+01
       O  2.57660e+01  1.81520e+01  1.12940e+01
       C  1.97192e+01  3.42179e-01  1.03789e+01
       O  1.86799e+01 -1.43263e-01  1.01917e+01
       O  2.07592e+01  8.26105e-01  1.05696e+01
       C  5.95548e+00  2.40247e+01  1.11850e+01
       O  6.71443e+00  2.41457e+01  1.20590e+01
       O  5.19243e+00  2.39075e+01  1.03139e+01
       C  3.03119e+01  2.72722e+01  1.44738e+01
       O  3.12060e+01  2.74567e+01  1.37540e+01
       O  2.94123e+01  2.70764e+01  1.51839e+01
       C  1.29573e+01  1.49458e+01  8.22930e+00
       O  1.18772e+01  1.45242e+01  8.31623e+00
       O  1.40431e+01  1.53511e+01  8.13452e+00
       C  9.14278e+00  2.20161e+01  2.04214e+01
       O  9.33603e+00  2.31589e+01  2.03292e+01
       O  8.95164e+00  2.08719e+01  2.05112e+01
       C  1.02728e+01  2.90518e+01  2.19373e+01
       O  9.28614e+00  2.96660e+01  2.19163e+01
       O  1.12659e+01  2.84465e+01  2.19498e+01
       C  2.23473e+01  1.51981e+01  1.66823e+01
       O  2.27270e+01  1.62757e+01  1.68979e+01
       O  2.19611e+01  1.41247e+01  1.64546e+01
       C  1.27699e+01  1.57490e+01  1.49853e+01
       O  1.19633e+01  1.61004e+01  1.42293e+01
       O  1.35872e+01  1.54028e+01  1.57393e+01
       C  1.53939e+01  2.62850e+01  9.77546e+00
       O  1.58742e+01  2.53163e+01  1.02009e+01
       O  1.48939e+01  2.72476e+01  9.35681e+00
       C  1.83369e+01  2.50813e+01  2.99228e+01
       O  1.82590e+01  2.50584e+01  2.87616e+01
       O  1.84161e+01  2.51088e+01  3.10820e+01
       C  8.95803e+00  3.60357e+00  4.75498e+00
       O  9.29162e+00  3.17056e+00  5.78060e+00
       O  8.62731e+00  4.04312e+00  3.73074e+00
       C  1.79766e+01  1.89877e+01  1.29380e+01
       O  1.71423e+01  1.89130e+01  1.21321e+01
       O  1.88013e+01  1.90564e+01  1.37527e+01
       C  2.89287e+01  1.64897e+01  3.05440e+01
       O  2.96632e+01  1.56930e+01  3.09657e+01
       O  2.81950e+01  1.72911e+01  3.01296e+01
       C  2.68681e+01  3.03868e+01  2.78261e+01
       O  2.73220e+01  2.95570e+01  2.85041e+01
       O  2.64172e+01  3.12087e+01  2.71394e+01
       C  1.64816e+00  2.37871e+01  1.93625e+01
       O  7.68998e-01  2.38649e+01  2.01188e+01
       O  2.52154e+00  2.36994e+01  1.86005e+01
       C  3.17027e+01  2.42920e+01  1.63735e+01
       O  3.19631e+01  2.54097e+01  1.61835e+01
       O  3.14498e+01  2.31754e+01  1.65725e+01
       C  2.62838e+01  1.35842e+01  1.65966e+01
       O  2.73382e+01  1.30978e+01  1.66516e+01
       O  2.52302e+01  1.40733e+01  1.65410e+01
       C  1.92156e+01  7.68404e+00  8.92458e+00
       O  1.97325e+01  8.72482e+00  8.97339e+00
       O  1.86879e+01  6.64965e+00  8.87295e+00
       C  9.14835e+00  2.87342e+01  3.01404e+01
       O  9.22277e+00  2.90729e+01  2.90302e+01
       O  9.08381e+00  2.83846e+01  3.12477e+01
       C  2.34121e+01  1.27924e+01  4.35211e+00
       O  2.22562e+01  1.26888e+01  4.28346e+00
       O  2.45677e+01  1.29050e+01  4.41619e+00
       C  1.74491e+01  2.49329e+01  2.56273e+01
       O  1.80225e+01  2.58150e+01  2.51328e+01
       O  1.68534e+01  2.40614e+01  2.61151e+01
       C  1.58415e+01  9.83023e+00  2.78016e+01
       O  1.57874e+01  1.09870e+01  2.79011e+01
       O  1.58948e+01  8.67291e+00  2.77106e+01
       C  1.17897e+01  2.57842e+01  1.56473e+01
       O  1.22628e+01  2.47287e+01  1.55296e+01
       O  1.13244e+01  2.68439e+01  1.57513e+01
       C  1.20855e+01  9.22868e+00  2.42230e+01
       O  1.28726e+01  8.37288e+00  2.42208e+01
       O  1.13077e+01  1.00937e+01  2.42143e+01
       C  1.99602e+01  3.23489e+00  3.42499e+00
       O  2.05176e+01  3.63172e+00  2.48520e+00
       O  1.93974e+01  2.83112e+00  4.35934e+00
       C  3.78263e+00  1.20466e+01  2.46175e+01
       O  4.63269e+00  1.26950e+01  2.41595e+01
       O  2.93256e+00  1.13965e+01  2.50710e+01
       C  2.90099e+01  1.66321e+01  2.07801e+01
       O  2.94623e+01  1.76402e+01  2.04209e+01
       O  2.85514e+01  1.56275e+01  2.11424e+01
       C  1.22331e+01  2.12635e+01  1.17003e+01
       O  1.21606e+01  2.20688e+01  1.25372e+01
       O  1.22890e+01  2.04478e+01  1.08742e+01
       C  1.97218e+01  1.25814e+01  2.39688e+00
       O  2.03810e+01  1.18621e+01  1.76547e+00
       O  1.90502e+01  1.32963e+01  3.02161e+00
       C  1.03849e+01  2.87833e+01  2.50982e+00
       O  1.05577e+01  2.98963e+01  2.22391e+00
       O  1.02176e+01  2.76675e+01  2.79217e+00
       C  2.68011e+01  1.30067e+01  1.30226e+01
       O  2.59977e+01  1.26879e+01  1.38005e+01
       O  2.76120e+01  1.33172e+01  1.22485e+01
       C  1.47121e+01  2.63242e+01  1.80839e+01
       O  1.35573e+01  2.61923e+01  1.80734e+01
       O  1.58685e+01  2.64497e+01  1.80831e+01
       C  3.85135e+00  2.10122e+01  1.76805e+01
       O  3.93875e+00  2.13891e+01  1.65841e+01
       O  3.75387e+00  2.06449e+01  1.87792e+01
       C  2.39097e+01  1.29501e+00  5.27683e+00
       O  2.29109e+01  1.56782e+00  4.74809e+00
       O  2.49043e+01  1.01904e+00  5.81252e+00
       C  1.96756e+01  1.26808e+01  2.89317e+01
       O  2.03787e+01  1.17579e+01  2.89985e+01
       O  1.89768e+01  1.36074e+01  2.88599e+01
       C  1.36300e+01  1.21800e+01  2.50198e+01
       O  1.31822e+01  1.32323e+01  2.48093e+01
       O  1.40581e+01  1.11159e+01  2.52144e+01
       C  5.03730e+00  2.79728e+01  2.33011e+01
       O  6.10196e+00  2.75190e+01  2.34124e+01
       O  3.96348e+00  2.84038e+01  2.31852e+01
       C  4.81393e+00  2.24628e+01  3.88640e+00
       O  3.69699e+00  2.27498e+01  4.03772e+00
       O  5.93342e+00  2.21811e+01  3.74169e+00
       C  9.02193e+00  6.94668e+00  1.68314e+01
       O  8.68520e+00  6.34392e+00  1.77675e+01
       O  9.35501e+00  7.54660e+00  1.58926e+01
       C  2.71535e+00  3.03482e+01  1.01894e+01
       O  3.79712e+00  3.07329e+01  1.03736e+01
       O  1.63523e+00  2.99541e+01  1.00152e+01
       C  7.51075e-01  4.51080e+00  3.23863e+01
       O  7.94454e-01  5.54518e+00  3.29167e+01
       O  7.10815e-01  3.47120e+00  3.18678e+01
       C  1.63380e+01  1.30124e+01  1.62062e+01
       O  1.70917e+01  1.37699e+01  1.66658e+01
       O  1.55911e+01  1.22492e+01  1.57454e+01
       C  1.56584e+01  1.95511e+01  2.18145e+01
       O  1.66039e+01  1.88920e+01  2.19662e+01
       O  1.47196e+01  2.02208e+01  2.16611e+01
       C  1.90238e+01  3.11005e+01  4.53753e+00
       O  2.01300e+01  3.11481e+01  4.18144e+00
       O  1.79152e+01  3.10527e+01  4.88294e+00
       C  9.06439e+00  1.57156e+01  1.66460e+01
       O  1.01953e+01  1.59848e+01  1.66754e+01
       O  7.93246e+00  1.54534e+01  1.66306e+01
       C -1.18439e-01  2.76576e+01  1.08242e+01
       O  8.61844e-01  2.70332e+01  1.08722e+01
       O -1.10192e+00  2.82765e+01  1.07756e+01
       C  2.22797e+01  4.69582e+00  2.26648e+01
       O  2.12836e+01  4.34198e+00  2.31485e+01
       O  2.32752e+01  5.05496e+00  2.21833e+01
       C  1.14070e+01  5.35492e+00  2.39249e+01
       O  1.08242e+01  6.18956e+00  2.33628e+01
       O  1.19816e+01  4.51302e+00  2.44844e+01
       C  1.22725e+01  2.55403e+01  2.21610e+01
       O  1.31924e+01  2.57181e+01  2.14717e+01
       O  1.13507e+01  2.53583e+01  2.28468e+01
       C  1.21059e+01  9.94149e-01  1.63523e+01
       O  1.11312e+01  1.60033e+00  1.61631e+01
       O  1.30925e+01  4.04115e-01  1.65282e+01
       C  8.63072e+00  3.36971e+00  1.75533e+01
       O  7.90278e+00  3.63176e+00  1.66850e+01
       O  9.35311e+00  3.11301e+00  1.84284e+01
       C  1.62379e+01  1.78123e+01  1.15557e+00
       O  1.58001e+01  1.82706e+01  1.80856e-01
       O  1.66726e+01  1.73405e+01  2.12554e+00
       C  9.23027e+00  7.08824e+00  2.64481e+01
       O  1.01977e+01  7.60451e+00  2.60592e+01
       O  8.26397e+00  6.57126e+00  2.68360e+01
       C  1.28150e+01  4.86811e+00  3.09684e+01
       O  1.20179e+01  4.02365e+00  3.10335e+01
       O  1.36050e+01  5.71795e+00  3.08934e+01
       C  2.10551e+01  2.71346e+01  2.58284e+01
       O  2.07449e+01  2.63520e+01  2.66308e+01
       O  2.13527e+01  2.79234e+01  2.50276e+01
       C  4.39848e+00  3.17039e+00  2.81653e+00
       O  3.56510e+00  3.45265e+00  2.05621e+00
       O  5.22617e+00  2.87834e+00  3.57892e+00
       C  2.25107e+01  2.28795e+01  1.17697e+01
       O  2.15203e+01  2.31722e+01  1.12347e+01
       O  2.35099e+01  2.25910e+01  1.22901e+01
       C  9.14241e+00  1.66041e+01  2.88635e+01
       O  9.13910e+00  1.77152e+01  2.85221e+01
       O  9.14365e+00  1.54927e+01  2.92071e+01
       C  7.46957e+00  2.66769e+01  1.78089e+00
       O  7.87578e+00  2.56958e+01  1.30763e+00
       O  7.06523e+00  2.76619e+01  2.24916e+00
       C  1.58046e+01  2.82731e+01  1.53019e+01
       O  1.47042e+01  2.80422e+01  1.56003e+01
       O  1.69021e+01  2.85101e+01  1.50005e+01
       C  7.12484e+00  2.86380e+01  2.69053e+01
       O  7.43246e+00  2.75307e+01  2.67321e+01
       O  6.82556e+00  2.97504e+01  2.70644e+01
       C  1.03284e+01  1.83209e+01  2.48545e+01
       O  9.39913e+00  1.89654e+01  2.51247e+01
       O  1.12619e+01  1.76867e+01  2.45761e+01
       C -2.80553e-02  6.61175e+00  1.40916e+01
       O  2.87756e-01  6.92742e+00  1.30184e+01
       O -3.51626e-01  6.27886e+00  1.51569e+01
       C  1.92570e+01  3.02080e+01  1.81960e+01
       O  1.93102e+01  3.11533e+01  1.88706e+01
       O  1.92013e+01  2.92717e+01  1.75081e+01
       C  2.46179e+01  8.30744e+00  2.50440e+01
       O  2.46207e+01  7.18249e+00  2.53384e+01
       O  2.46123e+01  9.43529e+00  2.47610e+01
       C  3.35241e+00  1.70807e+01  1.08033e+01
       O  3.11290e+00  1.81929e+01  1.10416e+01
       O  3.58243e+00  1.59676e+01  1.05566e+01
       C  6.64707e-01  1.86083e+01  2.92294e+01
       O  1.50237e+00  1.94096e+01  2.93425e+01
       O -1.84498e-01  1.78257e+01  2.91156e+01
       C  1.03350e+01  2.92375e+01  1.83193e+01
       O  1.03813e+01  3.03061e+01  1.78623e+01
       O  1.03031e+01  2.81823e+01  1.88053e+01
       C  2.64712e+00  1.36178e+01  8.62049e+00
       O  2.31170e+00  1.45773e+01  8.05626e+00
       O  2.97985e+00  1.26576e+01  9.18510e+00
       C  2.05146e+01  2.67546e+01  1.63404e+01
       O  2.15452e+01  2.71176e+01  1.67364e+01
       O  1.94957e+01  2.63576e+01  1.59451e+01
       C  7.50106e+00  5.48827e+00  1.33136e+00
       O  6.71434e+00  4.63904e+00  1.44263e+00
       O  8.28794e+00  6.33506e+00  1.20780e+00
       C  1.12871e+01  1.96185e+01  3.12998e+01
       O  1.24065e+01  1.97144e+01  3.15980e+01
       O  1.01657e+01  1.95407e+01  3.10058e+01
       C  1.32555e+01  1.90986e+01  6.49779e+00
       O  1.30739e+01  1.95415e+01  5.43818e+00
       O  1.34317e+01  1.86632e+01  7.56096e+00
       C  1.57501e+01  1.58361e+01  1.37547e+01
       O  1.62545e+01  1.47888e+01  1.37344e+01
       O  1.52455e+01  1.68838e+01  1.37547e+01
       C  4.09339e+00  1.06407e+01  1.13696e+01
       O  5.07147e+00  1.12594e+01  1.12609e+01
       O  3.11725e+00  1.00175e+01  1.14771e+01
       C  1.30351e+01  1.65781e+01  2.25003e+01
       O  1.39110e+01  1.72680e+01  2.28314e+01
       O  1.21584e+01  1.58912e+01  2.21638e+01
       C  1.20558e+01  1.93484e+01  1.95908e+01
       O  1.16776e+01  2.03211e+01  1.90788e+01
       O  1.24213e+01  1.83706e+01  2.01015e+01
       C  3.04073e+01  2.96929e+01  2.75230e+01
       O  3.09577e+01  2.89109e+01  2.81847e+01
       O  2.98424e+01  3.04715e+01  2.68701e+01
       C  2.80262e+01  2.42911e+00  1.77522e+01
       O  2.74926e+01  2.83925e+00  1.87007e+01
       O  2.85599e+01  2.00765e+00  1.68081e+01
       C  2.11416e+01  1.14277e+01  2.12911e+01
       O  2.02743e+01  1.19391e+01  2.07093e+01
       O  2.20106e+01  1.09179e+01  2.18712e+01
       C  2.33994e+01  2.94971e+01  1.68151e+01
       O  2.40213e+01  2.91767e+01  1.58857e+01
       O  2.27871e+01  2.98300e+01  1.77457e+01
       C  2.79815e+01  1.64946e+01  1.25975e+01
       O  2.74544e+01  1.66676e+01  1.36196e+01
       O  2.85056e+01  1.63323e+01  1.15721e+01
       C  9.37118e+00  1.77874e+01  2.07176e+01
       O  9.44231e+00  1.76388e+01  1.95660e+01
       O  9.31593e+00  1.79485e+01  2.18677e+01
       C  1.01636e+01  1.05878e+01  2.04373e+01
       O  9.50655e+00  1.13281e+01  1.98267e+01
       O  1.08224e+01  9.85918e+00  2.10593e+01
       C  2.48623e+01  2.34930e+01  3.00150e+01
       O  2.46970e+01  2.36899e+01  2.88812e+01
       O  2.50371e+01  2.33065e+01  3.11491e+01
       C  1.82585e+01  7.59619e+00  5.10701e+00
       O  1.91516e+01  7.35341e+00  5.81218e+00
       O  1.73689e+01  7.84053e+00  4.40023e+00
       C  2.21921e+01  1.78528e+01  1.95441e+01
       O  2.23881e+01  1.68079e+01  2.00155e+01
       O  2.19897e+01  1.89011e+01  1.90831e+01
       C  1.48161e+01  2.37422e+01  2.85268e+01
       O  1.41208e+01  2.36438e+01  2.76003e+01
       O  1.55223e+01  2.38483e+01  2.94443e+01
       C  9.68922e-01  1.02572e+01  1.36925e+01
       O  2.79566e-01  1.09828e+01  1.31007e+01
       O  1.64164e+00  9.53229e+00  1.43033e+01
       C  2.58987e+01  1.57959e+01  3.85487e+00
       O  2.70055e+01  1.56690e+01  4.18794e+00
       O  2.47919e+01  1.59216e+01  3.51983e+00
       C  5.21780e+00  6.23849e+00  6.90525e+00
       O  6.33770e+00  6.49144e+00  6.72510e+00
       O  4.09667e+00  5.98168e+00  7.07519e+00
       C  8.16545e+00  1.10895e+01  1.56090e+00
       O  7.35160e+00  1.13649e+01  2.34404e+00
       O  8.97763e+00  1.08103e+01  7.76918e-01
       C  2.51179e+01  3.13517e+01  2.41352e+01
       O  2.53528e+01  3.24798e+01  2.39786e+01
       O  2.48970e+01  3.02197e+01  2.42850e+01
       C  1.98641e+00  5.51877e+00  5.07317e+00
       O  2.81807e+00  5.61680e+00  4.26582e+00
       O  1.15586e+00  5.41555e+00  5.88015e+00
       C  2.59174e+01  5.24920e+00  2.95515e+01
       O  2.67307e+01  4.59950e+00  3.00703e+01
       O  2.51078e+01  5.90074e+00  2.90306e+01
       C  2.77334e+01  1.33628e+01  9.05245e+00
       O  2.83710e+01  1.43341e+01  9.07049e+00
       O  2.70832e+01  1.23992e+01  9.01923e+00
       C  1.55879e+01  2.72823e+01  2.92284e+01
       O  1.46733e+01  2.67517e+01  2.97132e+01
       O  1.65025e+01  2.78095e+01  2.87405e+01
       C  6.19897e+00  2.68048e+01  1.77219e+01
       O  6.61724e+00  2.59902e+01  1.84383e+01
       O  5.76923e+00  2.76110e+01  1.70020e+01
       C  6.37154e+00  1.73187e+01  1.35253e+01
       O  5.44516e+00  1.79522e+01  1.32220e+01
       O  7.31021e+00  1.67043e+01  1.38303e+01
       C  2.00734e+01  9.02709e+00  1.23002e+01
       O  2.12204e+01  9.04198e+00  1.24865e+01
       O  1.89258e+01  8.99604e+00  1.21156e+01
       C  1.53352e+01  3.05890e+01  3.00983e+01
       O  1.45181e+01  2.97645e+01  3.00298e+01
       O  1.61547e+01  3.14104e+01  3.01698e+01
       C  2.81035e+01  9.81184e+00  1.16848e+01
       O  2.91452e+01  9.30136e+00  1.17548e+01
       O  2.70621e+01  1.03304e+01  1.16492e+01
       C  2.64229e+01  2.98712e+00  7.77220e+00
       O  2.62297e+01  2.40524e+00  8.75971e+00
       O  2.66065e+01  3.58012e+00  6.78865e+00
       C  7.71628e+00  1.62518e+01  9.95882e+00
       O  8.68909e+00  1.61763e+01  9.32693e+00
       O  6.74797e+00  1.63431e+01  1.05967e+01
       C  3.17308e+01  6.63241e+00  1.80996e+01
       O  3.09634e+01  7.50434e+00  1.81583e+01
       O  3.25019e+01  5.76346e+00  1.80496e+01
       C  4.69872e+00  2.30928e+01 -1.59714e-01
       O  4.51216e+00  2.31594e+01  9.85706e-01
       O  4.88190e+00  2.30182e+01 -1.30579e+00
       C  1.92247e+01  1.33357e+01  2.31241e+01
       O  2.03251e+01  1.36397e+01  2.33450e+01
       O  1.81287e+01  1.30153e+01  2.29058e+01
       C  1.62194e+01  2.52992e+01  2.20109e+01
       O  1.61370e+01  2.44367e+01  2.27866e+01
       O  1.63119e+01  2.61624e+01  2.12378e+01
       C  9.28657e+00  2.31822e+01  1.35173e+01
       O  9.45933e+00  2.42093e+01  1.40350e+01
       O  9.10330e+00  2.21627e+01  1.29873e+01
       C  6.29065e+00  9.50453e+00  2.57402e+01
       O  5.73711e+00  9.64111e+00  2.47258e+01
       O  6.85090e+00  9.37180e+00  2.67498e+01
       C  2.72473e+00  2.39287e+01  8.09904e+00
       O  2.43531e+00  2.28082e+01  8.19655e+00
       O  3.01488e+00  2.50520e+01  8.00638e+00
       C  2.33234e+01  2.11436e+01  8.60871e+00
       O  2.41005e+01  2.14494e+01  7.80014e+00
       O  2.25493e+01  2.08398e+01  9.42183e+00
       C  2.28088e+01  2.22263e+01  2.28078e+01
       O  2.16966e+01  2.21919e+01  2.31456e+01
       O  2.39189e+01  2.22609e+01  2.24652e+01
       C  1.03008e+01  1.44830e+01  2.00019e+01
       O  9.58961e+00  1.48009e+01  2.08648e+01
       O  1.10185e+01  1.41720e+01  1.91420e+01
       C  2.52326e+01  4.24263e+00  2.47142e+01
       O  2.41427e+01  3.92192e+00  2.49607e+01
       O  2.63209e+01  4.56759e+00  2.44623e+01
       C  2.71665e+01  2.28888e+01  2.76171e+00
       O  2.61980e+01  2.22467e+01  2.75064e+00
       O  2.81393e+01  2.35276e+01  2.76294e+00
       C  2.12382e+01  2.66612e+01  2.02077e+01
       O  2.19088e+01  2.58213e+01  2.06506e+01
       O  2.05592e+01  2.74968e+01  1.97711e+01
       C  4.13383e+00  3.35447e+00  9.65965e+00
       O  5.00214e+00  4.10291e+00  9.46859e+00
       O  3.25861e+00  2.60961e+00  9.84047e+00
       C  3.09427e+01  3.10121e+01  1.49263e+01
       O  3.01473e+01  3.04031e+01  1.43351e+01
       O  3.17333e+01  3.16291e+01  1.55143e+01
       C  2.44874e+01  2.95114e+01  7.14847e+00
       O  2.36351e+01  3.00716e+01  7.70845e+00
       O  2.53401e+01  2.89526e+01  6.58949e+00
       C  1.99910e+01  2.49387e+01  2.27822e+01
       O  2.07695e+01  2.51797e+01  2.36112e+01
       O  1.92167e+01  2.47102e+01  2.19442e+01
       C  9.56262e+00  1.37865e+00  1.33572e+01
       O  8.69474e+00  2.04882e+00  1.37471e+01
       O  1.04383e+01  7.20064e-01  1.29691e+01
       C  1.75230e+01  1.39262e+01  7.66525e+00
       O  1.68510e+01  1.30122e+01  7.41008e+00
       O  1.81991e+01  1.48316e+01  7.94088e+00
       C  1.99662e+01  8.99905e+00  3.04707e+01
       O  2.07821e+01  9.32296e+00  3.12327e+01
       O  1.91442e+01  8.67212e+00  2.97156e+01
       C  1.82577e+01  2.00851e+01  1.70209e+01
       O  1.83908e+01  2.09577e+01  1.62642e+01
       O  1.81258e+01  1.92079e+01  1.77730e+01
       C  2.47813e+01  1.76693e+01  7.41302e+00
       O  2.43777e+01  1.82698e+01  8.32400e+00
       O  2.51602e+01  1.70657e+01  6.49490e+00
       C  2.77389e+01  7.26481e+00  2.69673e+01
       O  2.76390e+01  8.34813e+00  2.65598e+01
       O  2.78360e+01  6.17852e+00  2.73723e+01
       C  2.60382e+01  1.79515e+01  2.26346e+01
       O  2.57282e+01  1.76544e+01  2.37144e+01
       O  2.63559e+01  1.82386e+01  2.15533e+01
       C  1.50171e+01  1.82905e+01  1.81502e+01
       O  1.50351e+01  1.72117e+01  1.77206e+01
       O  1.49791e+01  1.93680e+01  1.85870e+01
       C  2.79632e+01  2.54957e+01  2.59177e+01
       O  2.68904e+01  2.56453e+01  2.54960e+01
       O  2.90343e+01  2.53490e+01  2.63460e+01
       C  1.82977e+01  6.57385e-01  2.46380e+01
       O  1.79723e+01  6.55613e-01  2.57544e+01
       O  1.86308e+01  6.47665e-01  2.35243e+01
       C  2.50524e+01  9.75684e+00  1.37653e+01
       O  2.59117e+01  9.28644e+00  1.43922e+01
       O  2.41889e+01  1.02111e+01  1.31339e+01
       C  2.27193e+01  2.45290e+01  7.03195e+00
       O  2.16271e+01  2.45934e+01  7.42473e+00
       O  2.38111e+01  2.44607e+01  6.63686e+00
       C  8.36818e+00  2.93680e+01  1.51406e+01
       O  8.50687e+00  2.85192e+01  1.59234e+01
       O  8.21907e+00  3.02136e+01  1.43566e+01
       C  2.75763e+01  2.25945e+01  2.78974e+01
       O  2.75415e+01  2.26140e+01  2.67357e+01
       O  2.76111e+01  2.25873e+01  2.90601e+01
       C  1.05465e+01  1.27453e+01  1.04083e+01
       O  1.13757e+01  1.19954e+01  1.00877e+01
       O  9.73160e+00  1.35025e+01  1.07473e+01
       C  1.17487e+01  4.34299e+00  2.76308e+01
       O  1.27956e+01  3.94511e+00  2.79421e+01
       O  1.07032e+01  4.74641e+00  2.73220e+01
       C  1.68345e+01  1.86900e+01  8.55581e+00
       O  1.64898e+01  1.76924e+01  8.06785e+00
       O  1.71973e+01  1.96829e+01  9.04048e+00
       C  2.85234e+01  2.15875e+01  1.62694e+01
       O  2.83525e+01  2.27205e+01  1.60721e+01
       O  2.86951e+01  2.04522e+01  1.64511e+01
       C  1.59335e+01  8.92401e+00  1.81501e+01
       O  1.63077e+01  7.85474e+00  1.78886e+01
       O  1.55558e+01  9.99240e+00  1.84118e+01
       C  1.42065e+01  9.69787e+00  1.50848e+01
       O  1.31749e+01  1.02317e+01  1.50397e+01
       O  1.52423e+01  9.17004e+00  1.51074e+01
       C  1.23982e+01  2.57258e+01  3.84426e+00
       O  1.17689e+01  2.47748e+01  4.06559e+00
       O  1.30302e+01  2.66789e+01  3.63018e+00
       C  1.92428e+01  1.68605e+01  2.39436e+01
       O  1.83569e+01  1.61133e+01  2.40400e+01
       O  2.01293e+01  1.76054e+01  2.38372e+01
       C  2.38610e+01  1.28269e+01  3.00082e+01
       O  2.34720e+01  1.18331e+01  2.95452e+01
       O  2.42449e+01  1.38215e+01  3.04723e+01
       C  2.65220e+01  9.31061e+00  8.11383e+00
       O  2.57587e+01  9.53893e+00  7.26650e+00
       O  2.72936e+01  9.07529e+00  8.94990e+00
       C  3.00917e+01  1.61682e+01  2.57778e+00
       O  2.94714e+01  1.71286e+01  2.36544e+00
       O  3.07146e+01  1.52072e+01  2.77761e+00
       C  2.14700e+01  3.07338e+01  2.22752e+01
       O  2.06883e+01  3.00944e+01  2.17003e+01
       O  2.22487e+01  3.13741e+01  2.28552e+01
       C  8.91020e+00  1.06866e+01  2.87141e+01
       O  9.82584e+00  1.00237e+01  2.84310e+01
       O  7.99316e+00  1.13379e+01  2.90046e+01
       C  1.71997e+00  2.80939e+01  1.70594e+01
       O  2.54232e+00  2.75473e+01  1.76736e+01
       O  8.98064e-01  2.86375e+01  1.64427e+01
       C  1.52128e+01  2.91630e+01  4.51066e+00
       O  1.55422e+01  2.83322e+01  5.25548e+00
       O  1.48797e+01  2.99784e+01  3.75298e+00
       C  1.17273e+01  2.28916e+01  3.08771e+01
       O  1.22865e+01  2.31973e+01  2.99052e+01
       O  1.11686e+01  2.25585e+01  3.18406e+01
       C  1.79655e+01  2.13941e+01  3.12692e+01
       O  1.78015e+01  2.06847e+01  3.21755e+01
       O  1.81259e+01  2.21081e+01  3.03648e+01
       C  1.08511e+01  1.63104e+00  2.47399e+01
       O  1.03104e+01  2.12093e+00  2.56461e+01
       O  1.13940e+01  1.14901e+00  2.38319e+01
       C  2.91294e+01  2.38939e+01  3.14004e+01
       O  2.99589e+01  2.30874e+01  3.15155e+01
       O  2.82909e+01  2.46922e+01  3.12852e+01
       C  1.92844e+01  1.55417e+01  3.12995e+01
       O  1.99034e+01  1.45898e+01  3.15488e+01
       O  1.86644e+01  1.64946e+01  3.10550e+01
       C  2.83606e+01  1.81572e+00  3.08127e+01
       O  2.76068e+01  1.48743e+00  2.99895e+01
       O  2.91115e+01  2.13958e+00  3.16387e+01