LAMMPS Description

1398  atoms
 932  bonds
 466  angles

 2  atom types
 1  bond types
 1  angle types


0.0 59.3158 xlo xhi
0.0 59.3158 ylo yhi
0.0 59.3158 zlo zhi

Masses

  1 12.0107
  2 15.9994

Bond Coeffs

 1    2.196    0.45106005 -0.67297933 0.5857145

Angle Coeffs

  1    0.0861  180.000000

Atoms

1 1 1 0.651200 51.257736 42.038478 45.932606
2 1 2 -0.325600 49.950619 40.286795 46.144418
3 1 2 -0.325600 52.564852 43.790160 45.720794
4 2 1 0.651200 1.444435 55.101822 44.088821
5 2 2 -0.325600 0.926687 55.544616 42.001316
6 2 2 -0.325600 1.962184 54.659029 46.176327
7 3 1 0.651200 28.316238 37.932312 4.469589
8 3 2 -0.325600 28.915666 36.363014 5.883731
9 3 2 -0.325600 27.716809 39.501610 3.055446
10 4 1 0.651200 35.116159 32.420973 10.177412
11 4 2 -0.325600 34.014270 32.880982 12.020247
12 4 2 -0.325600 36.218048 31.960965 8.334577
13 5 1 0.651200 18.238193 40.988236 2.604222
14 5 2 -0.325600 18.676679 40.337816 0.553248
15 5 2 -0.325600 17.799707 41.638657 4.655196
16 6 1 0.651200 30.839590 9.444982 31.843104
17 6 2 -0.325600 29.179876 10.325265 30.706329
18 6 2 -0.325600 32.499305 8.564698 32.979879
19 7 1 0.651200 50.957849 56.704951 10.017500
20 7 2 -0.325600 50.768436 58.817313 9.448412
21 7 2 -0.325600 51.147262 54.592590 10.586588
22 8 1 0.651200 18.604509 35.969068 18.029167
23 8 2 -0.325600 19.836903 34.456158 17.022134
24 8 2 -0.325600 17.372115 37.481979 19.036201
25 9 1 0.651200 21.907179 16.474047 14.618339
26 9 2 -0.325600 23.666763 15.954337 13.411867
27 9 2 -0.325600 20.147595 16.993756 15.824812
28 10 1 0.651200 54.654437 38.614292 40.424570
29 10 2 -0.325600 56.429924 37.608201 39.613869
30 10 2 -0.325600 52.878950 39.620383 41.235272
31 11 1 0.651200 31.042013 11.818211 56.738332
32 11 2 -0.325600 31.611181 11.094842 54.744693
33 11 2 -0.325600 30.472846 12.541580 58.731971
34 12 1 0.651200 49.075011 7.231037 21.732869
35 12 2 -0.325600 50.927113 6.799070 22.830564
36 12 2 -0.325600 47.222910 7.663003 20.635174
37 13 1 0.651200 8.827384 57.468555 1.484173
38 13 2 -0.325600 8.114880 55.621344 0.534458
39 13 2 -0.325600 9.539889 59.315766 2.433888
40 14 1 0.651200 33.856742 20.551073 18.656160
41 14 2 -0.325600 34.282441 22.537232 17.822036
42 14 2 -0.325600 33.431044 18.564914 19.490284
43 15 1 0.651200 30.418212 18.190346 43.570730
44 15 2 -0.325600 30.936180 20.124650 44.471832
45 15 2 -0.325600 29.900245 16.256041 42.669629
46 16 1 0.651200 55.830925 11.915917 56.660447
47 16 2 -0.325600 57.002662 10.216920 55.910611
48 16 2 -0.325600 54.659189 13.614913 57.410283
49 17 1 0.651200 26.275511 26.419731 37.163262
50 17 2 -0.325600 26.625163 25.654444 39.191534
51 17 2 -0.325600 25.925860 27.185018 35.134989
52 18 1 0.651200 35.039331 55.727381 59.219903
53 18 2 -0.325600 33.184695 54.554814 59.304873
54 18 2 -0.325600 36.893968 56.899949 59.134933
55 19 1 0.651200 36.202515 49.595198 22.448871
56 19 2 -0.325600 37.030595 49.166210 20.460892
57 19 2 -0.325600 35.374434 50.024186 24.436851
58 20 1 0.651200 25.547996 21.580072 55.872920
59 20 2 -0.325600 26.296346 20.530812 57.650794
60 20 2 -0.325600 24.799646 22.629332 54.095046
61 21 1 0.651200 7.383761 32.654238 37.557099
62 21 2 -0.325600 8.885577 32.134757 36.041678
63 21 2 -0.325600 5.881945 33.173720 39.072519
64 22 1 0.651200 33.369468 24.156751 49.406440
65 22 2 -0.325600 35.300517 23.338011 48.756420
66 22 2 -0.325600 31.438419 24.975491 50.056459
67 23 1 0.651200 22.808171 42.362127 37.747948
68 23 2 -0.325600 21.829169 42.267375 39.711208
69 23 2 -0.325600 23.787173 42.456879 35.784689
70 24 1 0.651200 35.948161 36.901913 40.005300
71 24 2 -0.325600 36.738373 38.783634 40.815546
72 24 2 -0.325600 35.157950 35.020191 39.195053
73 25 1 0.651200 44.232624 16.797649 53.351428
74 25 2 -0.325600 46.247054 16.033960 53.776474
75 25 2 -0.325600 42.218195 17.561338 52.926383
76 26 1 0.651200 41.997529 10.003915 11.995140
77 26 2 -0.325600 41.943228 9.299706 9.915969
78 26 2 -0.325600 42.051829 10.708125 14.074310
79 27 1 0.651200 32.765540 56.203008 23.028585
80 27 2 -0.325600 30.776862 57.128720 23.128708
81 27 2 -0.325600 34.754219 55.277295 22.928462
82 28 1 0.651200 20.061045 39.508485 53.180865
83 28 2 -0.325600 21.649808 38.360101 52.191492
84 28 2 -0.325600 18.472282 40.656868 54.170238
85 29 1 0.651200 40.422945 47.732190 7.190223
86 29 2 -0.325600 39.974058 47.002150 9.211943
87 29 2 -0.325600 40.871832 48.462229 5.168502
88 30 1 0.651200 47.849167 29.215191 0.000000
89 30 2 -0.325600 45.690570 28.812364 0.000000
90 30 2 -0.325600 50.007764 29.618018 0.000000
91 31 1 0.651200 12.210126 58.716897 38.537392
92 31 2 -0.325600 13.368895 59.315641 40.303905
93 31 2 -0.325600 11.051357 58.118152 36.770879
94 32 1 0.651200 39.894864 41.267260 37.057395
95 32 2 -0.325600 41.194343 41.961357 38.685705
96 32 2 -0.325600 38.595385 40.573163 35.429084
97 33 1 0.651200 49.944481 57.268882 4.137791
98 33 2 -0.325600 51.944371 58.097211 3.768844
99 33 2 -0.325600 47.944591 56.440554 4.506738
100 34 1 0.651200 29.757519 5.882007 55.224110
101 34 2 -0.325600 30.813107 5.664330 53.310955
102 34 2 -0.325600 28.701932 6.099684 57.137264
103 35 1 0.651200 4.607566 26.589178 2.346727
104 35 2 -0.325600 3.455075 25.316612 0.977731
105 35 2 -0.325600 5.760058 27.861744 3.715722
106 36 1 0.651200 6.844229 51.192326 38.234936
107 36 2 -0.325600 5.272817 49.660237 38.306897
108 36 2 -0.325600 8.415640 52.724415 38.162974
109 37 1 0.651200 32.635662 44.948037 12.611367
110 37 2 -0.325600 34.757180 45.108287 12.067960
111 37 2 -0.325600 30.514144 44.787786 13.154773
112 38 1 0.651200 24.187256 48.812174 0.559319
113 38 2 -0.325600 23.811534 46.722229 1.118579
114 38 2 -0.325600 24.562978 50.902119 0.000058
115 39 1 0.651200 42.779680 55.543653 6.184714
116 39 2 -0.325600 43.741219 55.464639 8.157278
117 39 2 -0.325600 41.818141 55.622666 4.212150
118 40 1 0.651200 6.714771 55.715102 7.121423
119 40 2 -0.325600 4.970679 56.153564 5.861382
120 40 2 -0.325600 8.458864 55.276639 8.381464
121 41 1 0.651200 53.364550 15.936805 9.348120
122 41 2 -0.325600 52.330867 14.757515 7.811050
123 41 2 -0.325600 54.398232 17.116096 10.885191
124 42 1 0.651200 29.039383 10.620182 41.679813
125 42 2 -0.325600 30.632974 11.007134 40.219490
126 42 2 -0.325600 27.445792 10.233230 43.140136
127 43 1 0.651200 23.616172 31.059269 58.549170
128 43 2 -0.325600 21.778303 32.010150 59.283930
129 43 2 -0.325600 25.454041 30.108388 57.814409
130 44 1 0.651200 47.831595 8.730614 7.168033
131 44 2 -0.325600 48.559424 9.802376 5.395069
132 44 2 -0.325600 47.103766 7.658852 8.940997
133 45 1 0.651200 54.628970 51.415590 4.651080
134 45 2 -0.325600 53.394775 52.705600 5.929535
135 45 2 -0.325600 55.863165 50.125579 3.372626
136 46 1 0.651200 4.787955 43.785119 25.713973
137 46 2 -0.325600 6.981012 43.674216 25.710790
138 46 2 -0.325600 2.594898 43.896023 25.717156
139 47 1 0.651200 42.881714 24.686878 52.027628
140 47 2 -0.325600 42.770308 22.834802 50.853228
141 47 2 -0.325600 42.993120 26.538953 53.202028
142 48 1 0.651200 30.202721 9.554937 5.993602
143 48 2 -0.325600 31.688461 8.138577 6.773544
144 48 2 -0.325600 28.716980 10.971297 5.213661
145 49 1 0.651200 28.865915 21.797539 23.616252
146 49 2 -0.325600 30.200963 23.345276 24.418728
147 49 2 -0.325600 27.530866 20.249802 22.813776
148 50 1 0.651200 44.769982 28.989722 41.920867
149 50 2 -0.325600 45.969614 27.218447 42.416121
150 50 2 -0.325600 43.570349 30.760997 41.425612
151 51 1 0.651200 49.443497 36.192646 20.854321
152 51 2 -0.325600 49.582534 38.374604 21.058121
153 51 2 -0.325600 49.304459 34.010687 20.650521
154 52 1 0.651200 37.854328 0.543487 17.126831
155 52 2 -0.325600 35.730187 1.084420 16.995592
156 52 2 -0.325600 39.978470 0.002553 17.258069
157 53 1 0.651200 9.476563 45.350971 20.658525
158 53 2 -0.325600 11.308348 45.736021 21.806614
159 53 2 -0.325600 7.644778 44.965921 19.510436
160 54 1 0.651200 57.501137 52.014836 26.226023
161 54 2 -0.325600 59.315543 52.577168 27.327624
162 54 2 -0.325600 55.686731 51.452504 25.124423
163 55 1 0.651200 24.626388 28.798981 16.523088
164 55 2 -0.325600 22.453904 28.875503 16.212815
165 55 2 -0.325600 26.798872 28.722459 16.833361
166 56 1 0.651200 16.708035 43.879724 37.645513
167 56 2 -0.325600 17.283441 45.650580 36.481560
168 56 2 -0.325600 16.132629 42.108868 38.809465
169 57 1 0.651200 18.914644 54.306586 41.694824
170 57 2 -0.325600 17.797031 56.192852 41.816292
171 57 2 -0.325600 20.032257 52.420321 41.573356
172 58 1 0.651200 41.225431 27.218790 32.167972
173 58 2 -0.325600 43.127109 28.316669 32.177695
174 58 2 -0.325600 39.323754 26.120911 32.158248
175 59 1 0.651200 24.827548 29.765985 27.587684
176 59 2 -0.325600 23.435586 29.444595 25.920064
177 59 2 -0.325600 26.219511 30.087375 29.255305
178 60 1 0.651200 28.049696 49.558437 18.672686
179 60 2 -0.325600 29.760228 48.188094 18.807040
180 60 2 -0.325600 26.339165 50.928781 18.538333
181 61 1 0.651200 34.803685 45.962655 56.393618
182 61 2 -0.325600 35.023270 45.851413 54.211597
183 61 2 -0.325600 34.584100 46.073898 58.575639
184 62 1 0.651200 18.566730 4.907941 9.953593
185 62 2 -0.325600 19.712434 4.903523 11.826866
186 62 2 -0.325600 17.421026 4.912359 8.080320
187 63 1 0.651200 34.653932 36.635480 26.705453
188 63 2 -0.325600 33.656969 36.433720 24.759389
189 63 2 -0.325600 35.650895 36.837240 28.651518
190 64 1 0.651200 54.728065 31.582283 58.056431
191 64 2 -0.325600 55.846198 29.937233 58.986700
192 64 2 -0.325600 53.609933 33.227333 57.126162
193 65 1 0.651200 50.286797 56.864357 52.242017
194 65 2 -0.325600 50.885976 54.971133 51.304734
195 65 2 -0.325600 49.687619 58.757580 53.179299
196 66 1 0.651200 1.772047 45.398455 34.547450
197 66 2 -0.325600 0.353771 46.100051 36.069971
198 66 2 -0.325600 3.190322 44.696859 33.024930
199 67 1 0.651200 59.315382 46.393427 31.907429
200 67 2 -0.325600 59.315414 48.184360 30.636851
201 67 2 -0.325600 59.315350 44.602494 33.178008
202 68 1 0.651200 50.220281 25.706055 32.111959
203 68 2 -0.325600 51.531137 24.221956 33.061125
204 68 2 -0.325600 48.909424 27.190153 31.162793
205 69 1 0.651200 36.245894 14.001169 18.266475
206 69 2 -0.325600 38.038013 15.262811 18.130910
207 69 2 -0.325600 34.453775 12.739527 18.402040
208 70 1 0.651200 16.646377 56.120511 56.689601
209 70 2 -0.325600 16.476040 57.809162 55.296313
210 70 2 -0.325600 16.816714 54.431859 58.082888
211 71 1 0.651200 42.791840 25.160149 8.794408
212 71 2 -0.325600 40.784584 26.045423 8.889397
213 71 2 -0.325600 44.799096 24.274875 8.699418
214 72 1 0.651200 31.887734 45.787213 47.459590
215 72 2 -0.325600 33.395807 47.324057 47.028736
216 72 2 -0.325600 30.379660 44.250368 47.890443
217 73 1 0.651200 29.115825 17.626523 53.330081
218 73 2 -0.325600 29.814012 19.677022 52.969806
219 73 2 -0.325600 28.417638 15.576024 53.690356
220 74 1 0.651200 21.260350 47.887778 30.268275
221 74 2 -0.325600 23.101173 46.699871 30.416789
222 74 2 -0.325600 19.419526 49.075685 30.119761
223 75 1 0.651200 23.152789 17.397537 45.156658
224 75 2 -0.325600 24.896385 16.077108 44.961340
225 75 2 -0.325600 21.409193 18.717966 45.351976
226 76 1 0.651200 37.188333 6.307844 7.003276
227 76 2 -0.325600 38.192490 8.037354 6.096483
228 76 2 -0.325600 36.184176 4.578334 7.910069
229 77 1 0.651200 6.238600 23.693914 45.392667
230 77 2 -0.325600 8.425213 23.557130 45.244943
231 77 2 -0.325600 4.051986 23.830697 45.540392
232 78 1 0.651200 53.508972 30.091771 40.748757
233 78 2 -0.325600 54.544415 31.744612 39.739904
234 78 2 -0.325600 52.473529 28.438930 41.757611
235 79 1 0.651200 22.248195 40.084264 22.713513
236 79 2 -0.325600 21.161487 41.279044 24.201255
237 79 2 -0.325600 23.334902 38.889485 21.225770
238 80 1 0.651200 36.796111 23.629185 3.531883
239 80 2 -0.325600 37.161257 21.568222 2.867875
240 80 2 -0.325600 36.430964 25.690149 4.195892
241 81 1 0.651200 20.067779 54.565955 2.701323
242 81 2 -0.325600 20.824204 56.611451 2.445242
243 81 2 -0.325600 19.311354 52.520460 2.957404
244 82 1 0.651200 49.069912 25.041227 25.715532
245 82 2 -0.325600 47.073936 24.471822 26.432238
246 82 2 -0.325600 51.065888 25.610632 24.998827
247 83 1 0.651200 28.665663 49.941867 36.827642
248 83 2 -0.325600 26.767374 48.875663 37.113154
249 83 2 -0.325600 30.563952 51.008071 36.542130
250 84 1 0.651200 7.781067 39.353149 33.862295
251 84 2 -0.325600 9.064962 40.555162 32.547537
252 84 2 -0.325600 6.497172 38.151136 35.177053
253 85 1 0.651200 44.844651 2.248864 10.316345
254 85 2 -0.325600 43.334481 2.741132 8.800143
255 85 2 -0.325600 46.354821 1.756597 11.832548
256 86 1 0.651200 36.750257 24.739063 54.865223
257 86 2 -0.325600 37.948403 23.137954 55.772254
258 86 2 -0.325600 35.552111 26.340172 53.958192
259 87 1 0.651200 26.380269 22.158869 48.693507
260 87 2 -0.325600 26.045910 24.314109 48.948371
261 87 2 -0.325600 26.714628 20.003630 48.438643
262 88 1 0.651200 10.018513 55.440746 44.014529
263 88 2 -0.325600 11.995595 55.958516 44.817567
264 88 2 -0.325600 8.041431 54.922976 43.211490
265 89 1 0.651200 8.145331 41.878102 6.859195
266 89 2 -0.325600 6.195700 40.954003 6.450796
267 89 2 -0.325600 10.094962 42.802201 7.267594
268 90 1 0.651200 16.713007 13.814490 32.519902
269 90 2 -0.325600 15.714715 14.431278 34.375917
270 90 2 -0.325600 17.711300 13.197701 30.663886
271 91 1 0.651200 7.010617 56.713545 19.357867
272 91 2 -0.325600 8.403496 56.758821 21.054820
273 91 2 -0.325600 5.617738 56.668269 17.660915
274 92 1 0.651200 2.376654 7.051849 59.318941
275 92 2 -0.325600 1.611179 9.109969 59.318941
276 92 2 -0.325600 3.142128 4.993729 59.318941
277 93 1 0.651200 30.372452 24.229855 30.109281
278 93 2 -0.325600 32.281906 23.259022 29.626291
279 93 2 -0.325600 28.462999 25.200688 30.592271
280 94 1 0.651200 28.538158 38.277925 40.621591
281 94 2 -0.325600 30.447392 37.246215 40.956569
282 94 2 -0.325600 26.628925 39.309636 40.286612
283 95 1 0.651200 37.059924 59.315777 8.282111
284 95 2 -0.325600 38.833973 59.315774 6.988063
285 95 2 -0.325600 35.285875 59.315780 9.576159
286 96 1 0.651200 16.812698 30.464166 31.360492
287 96 2 -0.325600 18.483121 29.510966 30.300820
288 96 2 -0.325600 15.142274 31.417366 32.420164
289 97 1 0.651200 0.625035 51.889515 21.213210
290 97 2 -0.325600 0.511682 49.737424 21.634474
291 97 2 -0.325600 0.738387 54.041607 20.791947
292 98 1 0.651200 42.004806 8.257125 42.002640
293 98 2 -0.325600 41.071487 6.992677 40.469050
294 98 2 -0.325600 42.938124 9.521573 43.536230
295 99 1 0.651200 21.061780 11.539101 44.155905
296 99 2 -0.325600 19.911494 13.272307 43.452593
297 99 2 -0.325600 22.212067 9.805895 44.859217
298 100 1 0.651200 22.155384 47.049233 42.554111
299 100 2 -0.325600 24.003750 47.961514 41.797078
300 100 2 -0.325600 20.307018 46.136952 43.311143
301 101 1 0.651200 23.254298 2.061119 30.191473
302 101 2 -0.325600 21.469520 3.067606 29.401941
303 101 2 -0.325600 25.039077 1.054633 30.981005
304 102 1 0.651200 17.514295 6.769373 33.736157
305 102 2 -0.325600 16.105179 8.450292 33.632657
306 102 2 -0.325600 18.923412 5.088454 33.839658
307 103 1 0.651200 31.661772 34.103378 1.014378
308 103 2 -0.325600 30.111520 35.280490 -0.001956
309 103 2 -0.325600 33.212024 32.926266 2.030713
310 104 1 0.651200 18.579522 12.898514 48.887629
311 104 2 -0.325600 19.812386 14.711449 48.764646
312 104 2 -0.325600 17.346659 11.085580 49.010612
313 105 1 0.651200 23.071227 10.258031 58.861771
314 105 2 -0.325600 21.490274 8.803293 58.407746
315 105 2 -0.325600 24.652179 11.712768 59.315795
316 106 1 0.651200 38.622709 50.375635 49.179060
317 106 2 -0.325600 37.479521 48.914351 50.353617
318 106 2 -0.325600 39.765896 51.836919 48.004504
319 107 1 0.651200 7.926577 7.289640 5.529497
320 107 2 -0.325600 6.964032 8.425380 3.915367
321 107 2 -0.325600 8.889122 6.153901 7.143626
322 108 1 0.651200 42.951594 43.272022 20.486321
323 108 2 -0.325600 41.228379 44.290850 19.583920
324 108 2 -0.325600 44.674809 42.253193 21.388722
325 109 1 0.651200 16.640439 31.274423 55.644530
326 109 2 -0.325600 16.553321 32.044929 53.590134
327 109 2 -0.325600 16.727557 30.503916 57.698925
328 110 1 0.651200 12.629152 52.236877 3.187580
329 110 2 -0.325600 13.172440 52.243744 1.059999
330 110 2 -0.325600 12.085864 52.230010 5.315161
331 111 1 0.651200 30.062461 54.535032 29.438933
332 111 2 -0.325600 28.147131 53.752828 30.174786
333 111 2 -0.325600 31.977791 55.317236 28.703081
334 112 1 0.651200 12.658487 53.769915 50.315082
335 112 2 -0.325600 11.715715 51.843456 49.844183
336 112 2 -0.325600 13.601260 55.696374 50.785981
337 113 1 0.651200 20.420726 34.929221 47.091506
338 113 2 -0.325600 19.119593 34.628119 48.834549
339 113 2 -0.325600 21.721858 35.230322 45.348462
340 114 1 0.651200 -0.012509 11.190832 26.121768
341 114 2 -0.325600 0.021898 12.927519 24.778436
342 114 2 -0.325600 -0.046917 9.454144 27.465101
343 115 1 0.651200 35.626188 55.856720 33.666116
344 115 2 -0.325600 37.134713 57.450601 33.590589
345 115 2 -0.325600 34.117662 54.262839 33.741642
346 116 1 0.651200 44.817581 15.651770 48.004019
347 116 2 -0.325600 44.291788 13.529215 48.204301
348 116 2 -0.325600 45.343375 17.774324 47.803737
349 117 1 0.651200 6.172193 31.728799 20.202025
350 117 2 -0.325600 5.592951 33.568043 21.252487
351 117 2 -0.325600 6.751436 29.889554 19.151564
352 118 1 0.651200 1.431200 37.475036 54.815514
353 118 2 -0.325600 2.862400 36.107226 53.865476
354 118 2 -0.325600 0.000000 38.842845 55.765552
355 119 1 0.651200 19.551048 58.087778 36.939408
356 119 2 -0.325600 17.730616 59.315638 36.953457
357 119 2 -0.325600 21.371480 56.859918 36.925360
358 120 1 0.651200 3.296816 26.177917 15.756664
359 120 2 -0.325600 2.212371 27.934969 15.009297
360 120 2 -0.325600 4.381260 24.420864 16.504031
361 121 1 0.651200 39.283202 51.132963 31.787679
362 121 2 -0.325600 40.943772 52.460833 32.336385
363 121 2 -0.325600 37.622632 49.805093 31.238973
364 122 1 0.651200 14.955260 9.733460 1.254901
365 122 2 -0.325600 12.867172 9.054702 1.286334
366 122 2 -0.325600 17.043348 10.412217 1.223467
367 123 1 0.651200 20.251624 37.292921 59.127811
368 123 2 -0.325600 22.428313 37.513205 59.315719
369 123 2 -0.325600 18.074935 37.072638 58.939904
370 124 1 0.651200 25.129148 37.301984 14.184956
371 124 2 -0.325600 26.406427 36.580929 12.550805
372 124 2 -0.325600 23.851870 38.023038 15.819107
373 125 1 0.651200 31.252958 30.613997 25.854671
374 125 2 -0.325600 32.373497 28.759427 25.498613
375 125 2 -0.325600 30.132420 32.468566 26.210728
376 126 1 0.651200 7.281095 19.174569 23.177037
377 126 2 -0.325600 9.315774 19.744474 23.774615
378 126 2 -0.325600 5.246416 18.604665 22.579459
379 127 1 0.651200 23.409439 30.361147 41.017481
380 127 2 -0.325600 25.517378 30.901698 40.723866
381 127 2 -0.325600 21.301500 29.820597 41.311095
382 128 1 0.651200 22.251343 36.261389 36.520380
383 128 2 -0.325600 20.897733 37.250021 35.101875
384 128 2 -0.325600 23.604953 35.272756 37.938884
385 129 1 0.651200 56.988195 55.492628 53.126466
386 129 2 -0.325600 56.914993 53.374396 52.552406
387 129 2 -0.325600 57.061397 57.610860 53.700525
388 130 1 0.651200 52.316241 4.454748 32.461668
389 130 2 -0.325600 51.585686 5.847621 33.993987
390 130 2 -0.325600 53.046795 3.061875 30.929348
391 131 1 0.651200 39.761914 21.460272 40.201385
392 131 2 -0.325600 38.766338 20.904152 38.324855
393 131 2 -0.325600 40.757491 22.016392 42.077916
394 132 1 0.651200 45.698757 56.071578 31.115614
395 132 2 -0.325600 46.276413 56.158719 28.998888
396 132 2 -0.325600 45.121101 55.984437 33.232340
397 133 1 0.651200 52.763296 30.640596 23.559045
398 133 2 -0.325600 51.459278 31.551271 25.072986
399 133 2 -0.325600 54.067314 29.729922 22.045104
400 134 1 0.651200 17.226472 34.456717 39.000141
401 134 2 -0.325600 16.114560 34.050588 37.150676
402 134 2 -0.325600 18.338384 34.862847 40.849607
403 135 1 0.651200 21.036369 20.085069 39.164615
404 135 2 -0.325600 21.665936 22.026542 38.354591
405 135 2 -0.325600 20.406802 18.143596 39.974639
406 136 1 0.651200 46.070736 46.017786 57.958966
407 136 2 -0.325600 47.644088 46.727246 56.601380
408 136 2 -0.325600 44.497385 45.308325 59.316552
409 137 1 0.651200 32.181119 14.840652 10.184009
410 137 2 -0.325600 34.140600 14.295457 11.011659
411 137 2 -0.325600 30.221637 15.385848 9.356359
412 138 1 0.651200 41.805876 33.365128 35.839992
413 138 2 -0.325600 41.077776 31.342956 36.289991
414 138 2 -0.325600 42.533975 35.387301 35.389994
415 139 1 0.651200 28.280503 45.550961 53.992741
416 139 2 -0.325600 27.178594 45.889581 52.123799
417 139 2 -0.325600 29.382412 45.212341 55.861682
418 140 1 0.651200 1.168068 18.404030 26.861974
419 140 2 -0.325600 0.160357 18.909836 24.977700
420 140 2 -0.325600 2.175779 17.898225 28.746248
421 141 1 0.651200 48.658792 29.293850 7.247224
422 141 2 -0.325600 50.201014 29.189614 8.806870
423 141 2 -0.325600 47.116570 29.398086 5.687578
424 142 1 0.651200 9.676100 11.149609 13.011572
425 142 2 -0.325600 10.374679 13.219453 12.788986
426 142 2 -0.325600 8.977521 9.079765 13.234158
427 143 1 0.651200 18.062339 20.938008 1.812783
428 143 2 -0.325600 17.369856 21.965683 3.625560
429 143 2 -0.325600 18.754822 19.910333 0.000005
430 144 1 0.651200 47.584982 56.595062 46.142548
431 144 2 -0.325600 47.987299 58.673382 45.558990
432 144 2 -0.325600 47.182665 54.516743 46.726106
433 145 1 0.651200 4.102911 11.962758 8.509629
434 145 2 -0.325600 6.262312 11.628043 8.725880
435 145 2 -0.325600 1.943511 12.297474 8.293378
436 146 1 0.651200 48.115492 8.350293 56.533597
437 146 2 -0.325600 48.956724 6.323981 56.624149
438 146 2 -0.325600 47.274260 10.376604 56.443045
439 147 1 0.651200 52.182172 23.439424 16.680057
440 147 2 -0.325600 53.669191 25.004447 17.081662
441 147 2 -0.325600 50.695153 21.874401 16.278451
442 148 1 0.651200 29.351687 51.321962 56.152951
443 148 2 -0.325600 28.036933 50.267638 57.560656
444 148 2 -0.325600 30.666441 52.376286 54.745247
445 149 1 0.651200 11.912607 51.575427 33.362120
446 149 2 -0.325600 13.013837 49.734223 33.830171
447 149 2 -0.325600 10.811377 53.416630 32.894070
448 150 1 0.651200 12.328360 32.847892 25.380305
449 150 2 -0.325600 10.311618 33.469931 25.986629
450 150 2 -0.325600 14.345102 32.225853 24.773981
451 151 1 0.651200 36.855508 14.938550 23.651933
452 151 2 -0.325600 38.844744 15.861567 23.538831
453 151 2 -0.325600 34.866273 14.015533 23.765034
454 152 1 0.651200 28.802379 57.782341 58.521033
455 152 2 -0.325600 27.454755 56.238523 57.732143
456 152 2 -0.325600 30.150003 59.326158 59.309922
457 153 1 0.651200 52.777368 19.207889 21.612071
458 153 2 -0.325600 54.034050 17.468946 21.144485
459 153 2 -0.325600 51.520686 20.946833 22.079657
460 154 1 0.651200 50.945939 5.454448 16.490590
461 154 2 -0.325600 49.967143 3.789920 17.536112
462 154 2 -0.325600 51.924735 7.118976 15.445069
463 155 1 0.651200 13.658665 31.321922 18.600516
464 155 2 -0.325600 15.399390 30.731428 17.399264
465 155 2 -0.325600 11.917941 31.912415 19.801769
466 156 1 0.651200 59.199030 14.642969 33.970343
467 156 2 -0.325600 59.315749 16.612459 33.006343
468 156 2 -0.325600 59.082311 12.673479 34.934343
469 157 1 0.651200 6.997849 42.122196 0.377362
470 157 2 -0.325600 5.116514 41.048432 0.737113
471 157 2 -0.325600 8.879184 43.195960 0.017611
472 158 1 0.651200 35.944553 26.012775 41.608149
473 158 2 -0.325600 38.010001 26.741022 41.448803
474 158 2 -0.325600 33.879105 25.284528 41.767495
475 159 1 0.651200 31.271550 47.767334 41.974888
476 159 2 -0.325600 30.768082 45.630672 41.920062
477 159 2 -0.325600 31.775018 49.903996 42.029713
478 160 1 0.651200 16.390801 43.963569 24.736898
479 160 2 -0.325600 17.134779 45.291525 26.319566
480 160 2 -0.325600 15.646823 42.635613 23.154229
481 161 1 0.651200 10.280737 17.226779 50.206495
482 161 2 -0.325600 8.108834 17.410508 50.472750
483 161 2 -0.325600 12.452640 17.043050 49.940240
484 162 1 0.651200 1.492670 43.004208 15.557254
485 162 2 -0.325600 1.111892 40.979618 14.797088
486 162 2 -0.325600 1.873448 45.028799 16.317420
487 163 1 0.651200 44.337515 39.391500 15.931564
488 163 2 -0.325600 46.480924 39.023802 15.627576
489 163 2 -0.325600 42.194107 39.759198 16.235552
490 164 1 0.651200 43.327545 41.373722 43.761184
491 164 2 -0.325600 41.808400 42.859013 44.316087
492 164 2 -0.325600 44.846690 39.888431 43.206280
493 165 1 0.651200 18.071471 27.756962 37.366574
494 165 2 -0.325600 16.610616 28.170053 38.953102
495 165 2 -0.325600 19.532325 27.343871 35.780046
496 166 1 0.651200 47.225637 8.511776 46.969504
497 166 2 -0.325600 45.502226 7.662776 48.032924
498 166 2 -0.325600 48.949049 9.360776 45.906083
499 167 1 0.651200 51.941123 44.655554 5.613128
500 167 2 -0.325600 50.493164 43.145217 4.946717
501 167 2 -0.325600 53.389083 46.165892 6.279538
502 168 1 0.651200 40.444163 48.539567 38.968964
503 168 2 -0.325600 41.920034 47.259563 39.971565
504 168 2 -0.325600 38.968293 49.819570 37.966363
505 169 1 0.651200 6.579379 5.162978 18.600964
506 169 2 -0.325600 8.302629 6.519642 18.709059
507 169 2 -0.325600 4.856130 3.806314 18.492870
508 170 1 0.651200 56.300125 58.190797 26.827155
509 170 2 -0.325600 54.408813 58.452304 25.742553
510 170 2 -0.325600 58.191438 57.929290 27.911756
511 171 1 0.651200 45.872249 57.032648 13.572958
512 171 2 -0.325600 45.305644 59.151441 13.465789
513 171 2 -0.325600 46.438854 54.913854 13.680127
514 172 1 0.651200 37.440527 45.856327 42.837267
515 172 2 -0.325600 38.157881 47.348785 44.279412
516 172 2 -0.325600 36.723174 44.363868 41.395123
517 173 1 0.651200 18.434076 2.911317 24.815876
518 173 2 -0.325600 17.519034 4.906630 24.872738
519 173 2 -0.325600 19.349118 0.916004 24.759013
520 174 1 0.651200 32.218451 25.582510 13.181277
521 174 2 -0.325600 30.146866 25.032992 12.703390
522 174 2 -0.325600 34.290036 26.132027 13.659164
523 175 1 0.651200 34.463094 17.559095 58.464796
524 175 2 -0.325600 36.592941 17.462211 58.990318
525 175 2 -0.325600 32.333246 17.655979 57.939275
526 176 1 0.651200 33.231470 39.160574 33.010150
527 176 2 -0.325600 32.324524 40.945464 32.108248
528 176 2 -0.325600 34.138415 37.375684 33.912052
529 177 1 0.651200 46.064821 32.849922 14.198928
530 177 2 -0.325600 44.658011 33.764490 15.615353
531 177 2 -0.325600 47.471630 31.935353 12.782502
532 178 1 0.651200 54.268411 13.684050 50.119503
533 178 2 -0.325600 54.671613 15.796567 49.676209
534 178 2 -0.325600 53.865209 11.571533 50.562796
535 179 1 0.651200 49.246193 33.268847 43.762477
536 179 2 -0.325600 49.092592 31.420753 44.938388
537 179 2 -0.325600 49.399794 35.116941 42.586566
538 180 1 0.651200 28.392198 36.054448 35.328387
539 180 2 -0.325600 28.569287 33.874956 35.529040
540 180 2 -0.325600 28.215109 38.233941 35.127733
541 181 1 0.651200 53.637115 47.582971 49.556732
542 181 2 -0.325600 51.503935 47.973569 49.212077
543 181 2 -0.325600 55.770295 47.192374 49.901388
544 182 1 0.651200 32.160485 0.663213 45.448971
545 182 2 -0.325600 34.232981 1.324658 45.747402
546 182 2 -0.325600 30.087989 0.001767 45.150540
547 183 1 0.651200 48.263310 18.061433 25.445949
548 183 2 -0.325600 50.255498 17.535549 26.205187
549 183 2 -0.325600 46.271122 18.587317 24.686710
550 184 1 0.651200 43.226057 45.543759 14.001268
551 184 2 -0.325600 41.349374 46.536827 14.561346
552 184 2 -0.325600 45.102739 44.550691 13.441190
553 185 1 0.651200 16.380819 55.155504 28.493638
554 185 2 -0.325600 16.509698 53.825032 30.235776
555 185 2 -0.325600 16.251940 56.485977 26.751501
556 186 1 0.651200 53.272345 42.490425 53.285879
557 186 2 -0.325600 53.892528 41.710914 51.328957
558 186 2 -0.325600 52.652162 43.269935 55.242802
559 187 1 0.651200 19.061182 22.877043 19.946586
560 187 2 -0.325600 19.713392 20.786616 19.783652
561 187 2 -0.325600 18.408972 24.967470 20.109521
562 188 1 0.651200 23.240890 8.105760 52.415188
563 188 2 -0.325600 24.291404 6.959456 53.965742
564 188 2 -0.325600 22.190376 9.252063 50.864634
565 189 1 0.651200 30.651297 34.573114 16.812822
566 189 2 -0.325600 29.663176 33.198247 15.414550
567 189 2 -0.325600 31.639417 35.947982 18.211095
568 190 1 0.651200 55.211706 43.004484 29.560951
569 190 2 -0.325600 55.113010 44.998453 28.646534
570 190 2 -0.325600 55.310401 41.010515 30.475367
571 191 1 0.651200 30.390037 16.255532 34.267343
572 191 2 -0.325600 31.110930 14.306559 34.977011
573 191 2 -0.325600 29.669144 18.204505 33.557675
574 192 1 0.651200 26.819535 17.394905 28.924492
575 192 2 -0.325600 25.393404 19.063114 28.995466
576 192 2 -0.325600 28.245666 15.726695 28.853519
577 193 1 0.651200 24.910381 48.976930 6.464787
578 193 2 -0.325600 23.206675 47.782833 7.167160
579 193 2 -0.325600 26.614087 50.171028 5.762414
580 194 1 0.651200 36.773383 31.600167 43.954045
581 194 2 -0.325600 35.118638 30.929489 45.232255
582 194 2 -0.325600 38.428128 32.270845 42.675835
583 195 1 0.651200 46.594799 24.418653 56.961180
584 195 2 -0.325600 45.501064 22.663871 57.700295
585 195 2 -0.325600 47.688533 26.173436 56.222064
586 196 1 0.651200 49.358964 16.595196 15.506033
587 196 2 -0.325600 47.962269 17.334107 13.981217
588 196 2 -0.325600 50.755659 15.856285 17.030848
589 197 1 0.651200 56.237786 29.755861 3.001935
590 197 2 -0.325600 54.854567 31.452907 3.170905
591 197 2 -0.325600 57.621004 28.058814 2.832965
592 198 1 0.651200 38.941326 58.135110 42.469071
593 198 2 -0.325600 40.140780 58.680900 40.712588
594 198 2 -0.325600 37.741872 57.589320 44.225555
595 199 1 0.651200 18.339499 18.260470 55.445207
596 199 2 -0.325600 18.450893 17.401770 57.463135
597 199 2 -0.325600 18.228105 19.119171 53.427278
598 200 1 0.651200 4.496161 52.128632 32.552905
599 200 2 -0.325600 6.055294 50.582603 32.579476
600 200 2 -0.325600 2.937028 53.674662 32.526334
601 201 1 0.651200 29.605936 55.191191 9.659040
602 201 2 -0.325600 30.170217 53.069126 9.643521
603 201 2 -0.325600 29.041656 57.313255 9.674558
604 202 1 0.651200 22.802490 43.938485 57.289264
605 202 2 -0.325600 23.404956 43.346319 55.262398
606 202 2 -0.325600 22.200025 44.530651 59.316130
607 203 1 0.651200 33.192566 40.073160 58.430528
608 203 2 -0.325600 35.117661 40.649638 59.315680
609 203 2 -0.325600 31.267472 39.496682 57.545376
610 204 1 0.651200 21.133551 4.466167 45.630169
611 204 2 -0.325600 20.087464 4.767253 47.537224