LAMMPS Description

2400  atoms
 1600  bonds
 800  angles

 2  atom types
 1  bond types
 1  angle types


0.0 71.026 xlo xhi
0.0 71.026 ylo yhi
0.0 71.026 zlo zhi

Masses

  1 12.0107
  2 15.9994

Bond Coeffs

 1    2.196    0.45106005 -0.67297933 0.5857145

Angle Coeffs

  1    0.0861  180.000000

Atoms

1 1 1 0.651200 29.212718 24.030448 35.760542
2 1 2 -0.325600 29.749039 24.490598 33.681496
3 1 2 -0.325600 28.676398 23.570299 37.839589
4 2 1 0.651200 39.950750 35.698442 43.933212
5 2 2 -0.325600 37.798752 36.013691 44.235427
6 2 2 -0.325600 42.102747 35.383193 43.630998
7 3 1 0.651200 68.143205 24.759812 21.134093
8 3 2 -0.325600 68.812453 25.507079 23.087426
9 3 2 -0.325600 67.473957 24.012545 19.180760
10 4 1 0.651200 21.139758 15.959193 47.656144
11 4 2 -0.325600 22.253031 17.826177 47.345010
12 4 2 -0.325600 20.026485 14.092209 47.967279
13 5 1 0.651200 46.616262 55.796149 30.453316
14 5 2 -0.325600 48.187846 54.944943 29.177627
15 5 2 -0.325600 45.044679 56.647355 31.729004
16 6 1 0.651200 25.948491 45.908866 6.117018
17 6 2 -0.325600 25.714319 47.723355 4.902687
18 6 2 -0.325600 26.182662 44.094376 7.331350
19 7 1 0.651200 61.554260 27.675989 45.137330
20 7 2 -0.325600 60.139534 29.323673 45.462135
21 7 2 -0.325600 62.968986 26.028305 44.812526
22 8 1 0.651200 33.789798 51.372781 19.490263
23 8 2 -0.325600 35.548982 50.109165 19.851314
24 8 2 -0.325600 32.030615 52.636397 19.129212
25 9 1 0.651200 12.990861 68.744364 63.383409
26 9 2 -0.325600 13.323593 69.862843 65.243544
27 9 2 -0.325600 12.658128 67.625884 61.523274
28 10 1 0.651200 50.076724 42.568939 49.562564
29 10 2 -0.325600 49.543401 42.419360 47.437710
30 10 2 -0.325600 50.610047 42.718518 51.687417
31 11 1 0.651200 50.128196 50.667327 16.078286
32 11 2 -0.325600 50.824592 49.111258 14.694273
33 11 2 -0.325600 49.431801 52.223396 17.462299
34 12 1 0.651200 34.471419 15.916277 51.529524
35 12 2 -0.325600 34.341591 18.053503 51.042470
36 12 2 -0.325600 34.601247 13.779052 52.016579
37 13 1 0.651200 29.850523 46.636762 63.075822
38 13 2 -0.325600 30.048117 48.569073 64.099999
39 13 2 -0.325600 29.652928 44.704451 62.051644
40 14 1 0.651200 56.229522 50.209373 41.546637
41 14 2 -0.325600 56.053320 50.924065 43.615447
42 14 2 -0.325600 56.405724 49.494681 39.477826
43 15 1 0.651200 41.126590 21.060983 68.502736
44 15 2 -0.325600 42.628345 19.623648 67.795199
45 15 2 -0.325600 39.624835 22.498319 69.210274
46 16 1 0.651200 10.983297 9.810990 55.365069
47 16 2 -0.325600 10.115087 7.817469 55.058650
48 16 2 -0.325600 11.851506 11.804512 55.671488
49 17 1 0.651200 47.432989 12.514533 26.754970
50 17 2 -0.325600 45.856255 11.277634 25.857306
51 17 2 -0.325600 49.009723 13.751432 27.652635
52 18 1 0.651200 37.257382 58.682420 32.460439
53 18 2 -0.325600 38.059900 59.228546 30.490789
54 18 2 -0.325600 36.454865 58.136295 34.430090
55 19 1 0.651200 11.730995 13.595974 28.601464
56 19 2 -0.325600 11.065428 12.872138 26.638077
57 19 2 -0.325600 12.396563 14.319810 30.564852
58 20 1 0.651200 31.459529 59.349460 44.304095
59 20 2 -0.325600 30.978946 60.022163 42.269809
60 20 2 -0.325600 31.940113 58.676758 46.338381
61 21 1 0.651200 56.927688 25.519087 64.696345
62 21 2 -0.325600 55.647057 23.755652 64.427851
63 21 2 -0.325600 58.208319 27.282523 64.964838
64 22 1 0.651200 1.781620 6.470728 4.552148
65 22 2 -0.325600 0.990328 7.876754 3.062599
66 22 2 -0.325600 2.572912 5.064702 6.041698
67 23 1 0.651200 52.479057 52.664231 67.848637
68 23 2 -0.325600 53.286704 53.248322 69.805254
69 23 2 -0.325600 51.671410 52.080140 65.892019
70 24 1 0.651200 23.951479 29.863287 36.759917
71 24 2 -0.325600 22.640720 30.585433 38.366848
72 24 2 -0.325600 25.262237 29.141140 35.152986
73 25 1 0.651200 26.607212 56.217237 18.930746
74 25 2 -0.325600 25.471210 56.799899 20.717311
75 25 2 -0.325600 27.743215 55.634575 17.144181
76 26 1 0.651200 52.438138 47.094630 26.019123
77 26 2 -0.325600 52.163189 45.469541 24.568158
78 26 2 -0.325600 52.713086 48.719720 27.470087
79 27 1 0.651200 34.654851 63.435779 9.236882
80 27 2 -0.325600 33.294892 65.151439 9.406686
81 27 2 -0.325600 36.014809 61.720119 9.067078
82 28 1 0.651200 40.066992 30.981451 64.727963
83 28 2 -0.325600 42.212549 31.091657 65.182111
84 28 2 -0.325600 37.921435 30.871245 64.273816
85 29 1 0.651200 19.269438 45.964066 34.815045
86 29 2 -0.325600 20.295280 44.342776 33.746926
87 29 2 -0.325600 18.243595 47.585355 35.883164
88 30 1 0.651200 6.933627 56.670644 67.286365
89 30 2 -0.325600 8.798890 56.136604 66.258063
90 30 2 -0.325600 5.068364 57.204684 68.314667
91 31 1 0.651200 2.536235 31.948342 22.557438
92 31 2 -0.325600 0.355008 31.717789 22.661859
93 31 2 -0.325600 4.717462 32.178894 22.453016
94 32 1 0.651200 60.513663 11.346642 58.549675
95 32 2 -0.325600 60.769657 9.169426 58.676201
96 32 2 -0.325600 60.257670 13.523857 58.423149
97 33 1 0.651200 54.487561 10.623907 5.694150
98 33 2 -0.325600 55.749477 10.849862 7.476935
99 33 2 -0.325600 53.225645 10.397952 3.911366
100 34 1 0.651200 26.459836 24.492893 48.268094
101 34 2 -0.325600 26.000637 24.733397 46.134294
102 34 2 -0.325600 26.919035 24.252389 50.401895
103 35 1 0.651200 2.378801 22.553265 27.285713
104 35 2 -0.325600 4.070984 23.073380 25.986556
105 35 2 -0.325600 0.686619 22.033151 28.584870
106 36 1 0.651200 23.435863 5.988326 48.091103
107 36 2 -0.325600 24.488097 7.248854 46.633131
108 36 2 -0.325600 22.383629 4.727797 49.549075
109 37 1 0.651200 32.736937 56.614038 13.338411
110 37 2 -0.325600 31.489997 54.811647 13.202999
111 37 2 -0.325600 33.983877 58.416429 13.473824
112 38 1 0.651200 46.497131 23.229862 56.796173
113 38 2 -0.325600 47.362199 22.257472 58.564767
114 38 2 -0.325600 45.632063 24.202253 55.027580
115 39 1 0.651200 30.326637 50.813508 55.141719
116 39 2 -0.325600 28.213424 50.754535 55.735573
117 39 2 -0.325600 32.439850 50.872481 54.547866
118 40 1 0.651200 40.878717 13.203398 67.835041
119 40 2 -0.325600 42.186426 14.021523 66.272229
120 40 2 -0.325600 39.571009 12.385274 69.397853
121 41 1 0.651200 43.201824 37.808885 32.018136
122 41 2 -0.325600 41.164068 37.372880 31.325849
123 41 2 -0.325600 45.239579 38.244890 32.710423
124 42 1 0.651200 64.814089 56.111543 12.223127
125 42 2 -0.325600 63.512155 56.656108 10.540799
126 42 2 -0.325600 66.116024 55.566979 13.905454
127 43 1 0.651200 27.992140 38.005948 61.537620
128 43 2 -0.325600 27.096424 39.933414 60.985914
129 43 2 -0.325600 28.887856 36.078483 62.089325
130 44 1 0.651200 34.806422 56.276150 56.151591
131 44 2 -0.325600 36.667690 55.111055 56.145019
132 44 2 -0.325600 32.945153 57.441245 56.158163
133 45 1 0.651200 58.664196 68.853400 34.556662
134 45 2 -0.325600 57.398873 70.292645 35.628736
135 45 2 -0.325600 59.929519 67.414155 33.484588
136 46 1 0.651200 23.714878 51.120549 28.265161
137 46 2 -0.325600 24.249095 52.476498 29.907667
138 46 2 -0.325600 23.180661 49.764599 26.622656
139 47 1 0.651200 47.251967 8.713056 12.433019
140 47 2 -0.325600 45.944224 7.333162 13.531887
141 47 2 -0.325600 48.559710 10.092950 11.334151
142 48 1 0.651200 4.900022 51.458574 39.133096
143 48 2 -0.325600 4.175400 50.198224 37.487419
144 48 2 -0.325600 5.624644 52.718924 40.778772
145 49 1 0.651200 38.995332 37.681294 67.408393
146 49 2 -0.325600 40.542261 37.696192 68.966790
147 49 2 -0.325600 37.448404 37.666396 65.849997
148 50 1 0.651200 30.259479 9.027429 7.685442
149 50 2 -0.325600 31.980021 8.267742 8.818764
150 50 2 -0.325600 28.538937 9.787117 6.552120
151 51 1 0.651200 40.139067 3.765344 30.853939
152 51 2 -0.325600 38.592819 2.218110 30.661599
153 51 2 -0.325600 41.685316 5.312577 31.046278
154 52 1 0.651200 22.275026 47.695865 62.168071
155 52 2 -0.325600 20.827483 47.105671 63.710180
156 52 2 -0.325600 23.722569 48.286059 60.625961
157 53 1 0.651200 9.762510 35.884680 11.625561
158 53 2 -0.325600 9.736826 35.026995 9.604292
159 53 2 -0.325600 9.788195 36.742364 13.646829
160 54 1 0.651200 38.735815 -0.000118 47.431221
161 54 2 -0.325600 38.233604 -0.000183 45.293560
162 54 2 -0.325600 39.238025 -0.000053 49.568882
163 55 1 0.651200 29.139425 41.617455 13.268769
164 55 2 -0.325600 27.386750 41.095329 12.053317
165 55 2 -0.325600 30.892100 42.139581 14.484221
166 56 1 0.651200 41.355008 70.735328 53.761238
167 56 2 -0.325600 42.783427 70.450196 55.404445
168 56 2 -0.325600 39.926589 71.020461 52.118031
169 57 1 0.651200 39.042651 43.279681 -0.011715
170 57 2 -0.325600 38.033860 41.329258 -0.010926
171 57 2 -0.325600 40.051442 45.230104 -0.012503
172 58 1 0.651200 0.818147 -0.000000 4.808982
173 58 2 -0.325600 1.443129 -0.000000 2.703939
174 58 2 -0.325600 0.193164 -0.000000 6.914025
175 59 1 0.651200 1.722018 2.795826 56.640558
176 59 2 -0.325600 -0.000295 1.470522 56.955222
177 59 2 -0.325600 3.444332 4.121131 56.325894
178 60 1 0.651200 30.448922 36.227986 53.618282
179 60 2 -0.325600 32.219281 37.519338 53.759865
180 60 2 -0.325600 28.678562 34.936633 53.476699
181 61 1 0.651200 11.179325 22.091734 2.803917
182 61 2 -0.325600 11.936938 24.124786 2.465491
183 61 2 -0.325600 10.421712 20.058682 3.142342
184 62 1 0.651200 62.579834 37.791676 25.518715
185 62 2 -0.325600 60.764457 38.147335 26.701815
186 62 2 -0.325600 64.395210 37.436017 24.335616
187 63 1 0.651200 41.718600 41.715918 7.920911
188 63 2 -0.325600 43.427404 43.090469 8.032300
189 63 2 -0.325600 40.009796 40.341367 7.809522
190 64 1 0.651200 34.466832 67.157261 18.601458
191 64 2 -0.325600 32.487860 68.071200 18.336517
192 64 2 -0.325600 36.445805 66.243322 18.866399
193 65 1 0.651200 36.063287 52.881369 67.056397
194 65 2 -0.325600 35.082593 54.049094 68.636418
195 65 2 -0.325600 37.043981 51.713644 65.476375
196 66 1 0.651200 53.002472 52.806095 35.369488
197 66 2 -0.325600 53.448957 54.955069 35.435613
198 66 2 -0.325600 52.555987 50.657121 35.303363
199 67 1 0.651200 30.813135 18.383680 32.987211
200 67 2 -0.325600 28.949327 18.110170 34.115582
201 67 2 -0.325600 32.676943 18.657191 31.858840
202 68 1 0.651200 66.621874 31.576043 8.662692
203 68 2 -0.325600 64.729838 31.006029 9.620341
204 68 2 -0.325600 68.513911 32.146058 7.705044
205 69 1 0.651200 56.961252 7.827955 43.212609
206 69 2 -0.325600 55.551165 6.406420 42.311109
207 69 2 -0.325600 58.371340 9.249490 44.114108
208 70 1 0.651200 64.800900 30.574639 0.167327
209 70 2 -0.325600 62.638138 30.233656 -0.000007
210 70 2 -0.325600 66.963663 30.915622 0.334660
211 71 1 0.651200 45.482576 16.236365 14.168820
212 71 2 -0.325600 47.147869 14.805147 14.153881
213 71 2 -0.325600 43.817283 17.667583 14.183759
214 72 1 0.651200 35.714434 62.271585 59.883588
215 72 2 -0.325600 34.992699 63.949875 58.665290
216 72 2 -0.325600 36.436168 60.593295 61.101887
217 73 1 0.651200 19.996037 71.026055 6.884934
218 73 2 -0.325600 21.617169 71.026033 5.403807
219 73 2 -0.325600 18.374904 71.026077 8.366062
220 74 1 0.651200 17.601256 43.521597 60.279126
221 74 2 -0.325600 18.733979 43.881691 58.432757
222 74 2 -0.325600 16.468534 43.161502 62.125496
223 75 1 0.651200 19.368044 28.121805 34.265317
224 75 2 -0.325600 19.043969 30.285637 34.079257
225 75 2 -0.325600 19.692119 25.957974 34.451376
226 76 1 0.651200 15.559963 17.554462 7.294169
227 76 2 -0.325600 17.522013 16.571176 7.221244
228 76 2 -0.325600 13.597913 18.537748 7.367093
229 77 1 0.651200 3.680469 70.016225 43.219837
230 77 2 -0.325600 5.706401 70.847164 43.055679
231 77 2 -0.325600 1.654536 69.185286 43.383995
232 78 1 0.651200 37.805938 50.680786 1.361022
233 78 2 -0.325600 39.366549 49.951483 2.722793
234 78 2 -0.325600 36.245328 51.410089 -0.000749
235 79 1 0.651200 69.839518 24.748765 9.173414
236 79 2 -0.325600 69.516590 26.919244 9.092495
237 79 2 -0.325600 70.162446 22.578286 9.254332
238 80 1 0.651200 43.910526 64.641457 56.205587
239 80 2 -0.325600 46.010414 65.040587 55.702622
240 80 2 -0.325600 41.810638 64.242326 56.708552
241 81 1 0.651200 6.157617 41.691226 45.530667
242 81 2 -0.325600 5.686749 42.143939 43.434207
243 81 2 -0.325600 6.628485 41.238514 47.627127
244 82 1 0.651200 38.060010 1.093947 24.803482
245 82 2 -0.325600 35.879499 1.067447 24.545648
246 82 2 -0.325600 40.240521 1.120446 25.061317
247 83 1 0.651200 65.049479 67.366540 58.366790
248 83 2 -0.325600 66.364651 69.062458 58.831541
249 83 2 -0.325600 63.734307 65.670621 57.902039
250 84 1 0.651200 56.434622 12.360285 26.570628
251 84 2 -0.325600 58.186510 11.171272 27.152820
252 84 2 -0.325600 54.682734 13.549298 25.988436
253 85 1 0.651200 29.892333 65.532162 33.475394
254 85 2 -0.325600 31.743562 66.290103 32.569699
255 85 2 -0.325600 28.041104 64.774221 34.381090
256 86 1 0.651200 30.043970 35.635226 9.375917
257 86 2 -0.325600 32.137270 34.972827 9.409553
258 86 2 -0.325600 27.950670 36.297626 9.342281
259 87 1 0.651200 28.316559 66.168518 4.684517
260 87 2 -0.325600 30.018030 67.546032 4.855577
261 87 2 -0.325600 26.615087 64.791005 4.513458
262 88 1 0.651200 47.956014 15.290898 33.567218
263 88 2 -0.325600 48.313409 17.430581 33.907562
264 88 2 -0.325600 47.598619 13.151215 33.226873
265 89 1 0.651200 50.864174 54.731778 11.483149
266 89 2 -0.325600 51.907378 53.430593 10.054705
267 89 2 -0.325600 49.820970 56.032964 12.911592
268 90 1 0.651200 21.617932 57.362419 25.672808
269 90 2 -0.325600 23.728659 57.953421 25.804553
270 90 2 -0.325600 19.507205 56.771417 25.541064
271 91 1 0.651200 67.624222 37.468326 38.390328
272 91 2 -0.325600 65.432629 37.488677 38.254998
273 91 2 -0.325600 69.815816 37.447974 38.525658
274 92 1 0.651200 19.148292 16.039697 31.179200
275 92 2 -0.325600 18.201284 14.120884 30.686103
276 92 2 -0.325600 20.095300 17.958509 31.672297
277 93 1 0.651200 1.049492 6.893414 20.119715
278 93 2 -0.325600 2.079850 4.954415 20.098467
279 93 2 -0.325600 0.019133 8.832414 20.140963
280 94 1 0.651200 11.343183 57.388796 1.308085
281 94 2 -0.325600 13.389810 58.135167 1.032300
282 94 2 -0.325600 9.296555 56.642425 1.583870
283 95 1 0.651200 39.686840 34.636652 10.466346
284 95 2 -0.325600 41.834690 34.271903 10.191558
285 95 2 -0.325600 37.538990 35.001401 10.741134
286 96 1 0.651200 5.058859 25.496303 35.372755
287 96 2 -0.325600 5.303410 26.860677 33.669673
288 96 2 -0.325600 4.814308 24.131929 37.075837
289 97 1 0.651200 34.179311 10.026198 67.717090
290 97 2 -0.325600 34.352335 11.437393 66.043651
291 97 2 -0.325600 34.006287 8.615002 69.390530
292 98 1 0.651200 4.098913 58.523811 56.105486
293 98 2 -0.325600 4.528742 60.459512 57.048947
294 98 2 -0.325600 3.669085 56.588110 55.162025
295 99 1 0.651200 68.629192 53.094215 19.601723
296 99 2 -0.325600 70.759724 53.512259 19.273269
297 99 2 -0.325600 66.498660 52.676172 19.930177
298 100 1 0.651200 35.848609 32.342094 4.812981
299 100 2 -0.325600 33.950307 31.502938 4.095990
300 100 2 -0.325600 37.746912 33.181251 5.529971
301 101 1 0.651200 71.026064 68.651150 46.528096
302 101 2 -0.325600 71.026014 70.064513 44.847556
303 101 2 -0.325600 71.026114 67.237786 48.208635
304 102 1 0.651200 42.680512 32.970284 28.398665
305 102 2 -0.325600 42.077563 34.287420 26.748389
306 102 2 -0.325600 43.283461 31.653147 30.048942
307 103 1 0.651200 14.246911 27.216150 62.762549
308 103 2 -0.325600 15.692484 25.761491 63.547465
309 103 2 -0.325600 12.801337 28.670810 61.977633
310 104 1 0.651200 1.250196 2.139996 27.745753
311 104 2 -0.325600 2.325610 0.446275 28.638278
312 104 2 -0.325600 0.174781 3.833717 26.853227
313 105 1 0.651200 52.460120 3.987831 13.773321
314 105 2 -0.325600 52.855620 1.872564 14.210400
315 105 2 -0.325600 52.064621 6.103097 13.336242
316 106 1 0.651200 41.440638 29.881765 48.514048
317 106 2 -0.325600 40.343353 31.506579 47.525233
318 106 2 -0.325600 42.537923 28.256951 49.502862
319 107 1 0.651200 49.498478 36.782512 46.459205
320 107 2 -0.325600 51.084318 36.921191 47.971716
321 107 2 -0.325600 47.912637 36.643834 44.946695
322 108 1 0.651200 43.157225 58.340067 24.955530
323 108 2 -0.325600 43.765393 59.168719 23.015097
324 108 2 -0.325600 42.549058 57.511416 26.895962
325 109 1 0.651200 6.321090 19.622224 55.212931
326 109 2 -0.325600 6.423614 18.350495 57.000108
327 109 2 -0.325600 6.218566 20.893953 53.425753
328 110 1 0.651200 2.420374 25.584683 20.988365
329 110 2 -0.325600 4.599465 25.847900 21.052325
330 110 2 -0.325600 0.241284 25.321466 20.924406
331 111 1 0.651200 45.569035 16.423497 21.002765
332 111 2 -0.325600 47.071974 15.111474 21.920140
333 111 2 -0.325600 44.066096 17.735521 20.085390
334 112 1 0.651200 46.538854 23.294159 66.475912
335 112 2 -0.325600 47.689154 23.390717 68.343878
336 112 2 -0.325600 45.388554 23.197600 64.607946
337 113 1 0.651200 9.015120 54.123982 56.697121
338 113 2 -0.325600 7.959308 52.198676 56.713535
339 113 2 -0.325600 10.070931 56.049288 56.680708
340 114 1 0.651200 47.807856 40.537930 69.573730
341 114 2 -0.325600 46.160870 40.550512 71.026000
342 114 2 -0.325600 49.454842 40.525348 68.121460
343 115 1 0.651200 10.280543 38.528374 20.366015
344 115 2 -0.325600 12.087967 39.718595 19.993994
345 115 2 -0.325600 8.473118 37.338152 20.738036
346 116 1 0.651200 59.075149 68.424000 69.364682
347 116 2 -0.325600 59.285324 70.348516 70.400961
348 116 2 -0.325600 58.864974 66.499484 68.328403
349 117 1 0.651200 62.425987 13.093764 2.835677
350 117 2 -0.325600 63.729596 12.747505 4.568455
351 117 2 -0.325600 61.122379 13.440023 1.102899
352 118 1 0.651200 39.618982 10.832601 44.365203
353 118 2 -0.325600 41.566285 11.700060 43.838574
354 118 2 -0.325600 37.671680 9.965142 44.891831
355 119 1 0.651200 57.552860 17.406312 66.803140
356 119 2 -0.325600 55.483961 17.965692 67.281218
357 119 2 -0.325600 59.621760 16.846932 66.325062
358 120 1 0.651200 64.103903 28.612624 50.709434
359 120 2 -0.325600 62.809928 30.381495 50.573294
360 120 2 -0.325600 65.397877 26.843753 50.845575
361 121 1 0.651200 0.395541 65.376723 48.567032
362 121 2 -0.325600 0.791125 63.226723 48.773972
363 121 2 -0.325600 -0.000043 67.526723 48.360091
364 122 1 0.651200 43.432745 11.138020 48.981569
365 122 2 -0.325600 45.508636 10.694076 48.419963
366 122 2 -0.325600 41.356855 11.581964 49.543175
367 123 1 0.651200 54.780255 49.885747 20.798618
368 123 2 -0.325600 54.987780 50.823733 22.773188
369 123 2 -0.325600 54.572730 48.947761 18.824048
370 124 1 0.651200 7.297671 0.217755 19.411381
371 124 2 -0.325600 5.133118 0.054768 19.742978
372 124 2 -0.325600 9.462224 0.380743 19.079784
373 125 1 0.651200 28.695939 52.563838 49.069475
374 125 2 -0.325600 30.754828 53.114096 48.540320
375 125 2 -0.325600 26.637051 52.013580 49.598630
376 126 1 0.651200 60.975127 51.775359 17.642842
377 126 2 -0.325600 62.499797 50.731185 16.456718
378 126 2 -0.325600 59.450457 52.819533 18.828966
379 127 1 0.651200 41.624108 57.483873 64.400232
380 127 2 -0.325600 43.732357 58.073607 64.571427
381 127 2 -0.325600 39.515858 56.894139 64.229036
382 128 1 0.651200 25.230947 23.999108 63.901333
383 128 2 -0.325600 25.833976 21.917872 64.257173
384 128 2 -0.325600 24.627918 26.080344 63.545493
385 129 1 0.651200 17.393083 48.241247 28.302239
386 129 2 -0.325600 18.970651 48.267229 29.829463
387 129 2 -0.325600 15.815514 48.215265 26.775015
388 130 1 0.651200 24.036200 0.573801 19.671139
389 130 2 -0.325600 24.360659 0.534598 21.842544
390 130 2 -0.325600 23.711741 0.613005 17.499734
391 131 1 0.651200 57.747730 60.401996 50.788388
392 131 2 -0.325600 55.591984 60.085251 50.515920
393 131 2 -0.325600 59.903477 60.718742 51.060856
394 132 1 0.651200 9.532450 12.420433 48.456867
395 132 2 -0.325600 9.536493 11.648580 46.401135
396 132 2 -0.325600 9.528407 13.192286 50.512600
397 133 1 0.651200 19.256757 62.668752 8.942664
398 133 2 -0.325600 19.340255 61.189770 7.321723
399 133 2 -0.325600 19.173259 64.147734 10.563605
400 134 1 0.651200 43.884521 5.373932 1.037784
401 134 2 -0.325600 45.840395 6.006822 1.809676
402 134 2 -0.325600 41.928647 4.741042 0.265892
403 135 1 0.651200 51.861248 12.087950 45.033477
404 135 2 -0.325600 50.528455 10.752426 46.156797
405 135 2 -0.325600 53.194041 13.423474 43.910157
406 136 1 0.651200 59.598937 22.350858 70.935364
407 136 2 -0.325600 61.513663 21.276161 70.909631
408 136 2 -0.325600 57.684212 23.425556 70.961096
409 137 1 0.651200 4.147021 10.258195 37.208659
410 137 2 -0.325600 4.532976 12.237072 36.338663
411 137 2 -0.325600 3.761065 8.279318 38.078656
412 138 1 0.651200 4.564762 30.012549 28.500629
413 138 2 -0.325600 5.765742 31.506569 29.571779
414 138 2 -0.325600 3.363782 28.518529 27.429480
415 139 1 0.651200 48.730367 30.351032 20.622659
416 139 2 -0.325600 49.039191 31.568912 18.821769
417 139 2 -0.325600 48.421543 29.133152 22.423549
418 140 1 0.651200 32.097583 12.704379 59.303838
419 140 2 -0.325600 32.678754 11.993129 57.309302
420 140 2 -0.325600 31.516413 13.415629 61.298374
421 141 1 0.651200 62.260714 33.736257 66.389367
422 141 2 -0.325600 62.891819 35.807250 66.756112
423 141 2 -0.325600 61.629608 31.665264 66.022621
424 142 1 0.651200 52.070401 7.735455 35.722413
425 142 2 -0.325600 52.824923 5.673484 35.694435
426 142 2 -0.325600 51.315879 9.797426 35.750390
427 143 1 0.651200 42.433045 28.524951 42.854691
428 143 2 -0.325600 40.592060 27.862320 41.857944
429 143 2 -0.325600 44.274030 29.187582 43.851438
430 144 1 0.651200 48.054063 23.486070 23.639039
431 144 2 -0.325600 46.911558 22.994565 21.829366
432 144 2 -0.325600 49.196568 23.977574 25.448711
433 145 1 0.651200 6.114307 44.310334 20.866964
434 145 2 -0.325600 5.972302 45.402766 22.766500
435 145 2 -0.325600 6.256311 43.217902 18.967427
436 146 1 0.651200 33.624103 51.963209 60.658064
437 146 2 -0.325600 33.327732 49.926514 59.892658
438 146 2 -0.325600 33.920474 53.999904 61.423470
439 147 1 0.651200 26.379964 21.579397 24.608844
440 147 2 -0.325600 25.912901 21.041311 22.531797
441 147 2 -0.325600 26.847027 22.117483 26.685892
442 148 1 0.651200 61.985298 33.365158 4.975390
443 148 2 -0.325600 59.940499 32.774004 5.514971
444 148 2 -0.325600 64.030096 33.956311 4.435809
445 149 1 0.651200 40.436385 60.095539 46.194205
446 149 2 -0.325600 41.077351 58.466927 47.520324
447 149 2 -0.325600 39.795419 61.724152 44.868085
448 150 1 0.651200 12.700663 36.899550 44.592120
449 150 2 -0.325600 12.502400 36.300022 42.489011
450 150 2 -0.325600 12.898926 37.499077 46.695229
451 151 1 0.651200 32.077415 35.707910 16.041620
452 151 2 -0.325600 33.710702 35.141759 14.687493
453 151 2 -0.325600 30.444129 36.274061 17.395746
454 152 1 0.651200 -0.000000 49.081489 49.571449
455 152 2 -0.325600 -0.000000 48.061953 51.516276
456 152 2 -0.325600 -0.000000 50.101026 47.626621
457 153 1 0.651200 30.110579 66.689364 45.028612
458 153 2 -0.325600 29.642018 64.820845 46.082604
459 153 2 -0.325600 30.579141 68.557882 43.974620
460 154 1 0.651200 67.285195 36.421629 56.543367
461 154 2 -0.325600 66.679785 34.328214 56.813374
462 154 2 -0.325600 67.890606 38.515043 56.273359
463 155 1 0.651200 35.269782 29.586089 48.431093
464 155 2 -0.325600 35.035602 31.558131 49.368120
465 155 2 -0.325600 35.503963 27.614047 47.494065
466 156 1 0.651200 26.393859 10.637886 55.006788
467 156 2 -0.325600 27.471071 10.275249 56.885595
468 156 2 -0.325600 25.316646 11.000522 53.127980
469 157 1 0.651200 11.092321 1.341877 10.776368
470 157 2 -0.325600 12.825901 2.683911 10.900678
471 157 2 -0.325600 9.358741 -0.000157 10.652058
472 158 1 0.651200 56.251628 18.078428 48.972998
473 158 2 -0.325600 56.842871 16.731474 47.342673
474 158 2 -0.325600 55.660385 19.425381 50.603322
475 159 1 0.651200 42.650091 68.033918 46.885256
476 159 2 -0.325600 43.070876 65.901042 46.576076
477 159 2 -0.325600 42.229307 70.166793 47.194436
478 160 1 0.651200 26.349807 34.315320 43.580918
479 160 2 -0.325600 26.079513 36.272583 44.538974
480 160 2 -0.325600 26.620101 32.358056 42.622863
481 161 1 0.651200 28.045843 61.659110 59.845190
482 161 2 -0.325600 26.402691 61.082854 61.183020
483 161 2 -0.325600 29.688996 62.235367 58.507360
484 162 1 0.651200 9.979038 50.534855 69.422067
485 162 2 -0.325600 11.946420 51.064196 68.602912
486 162 2 -0.325600 8.011656 50.005514 70.241223
487 163 1 0.651200 70.661329 41.388530 25.100266
488 163 2 -0.325600 71.025943 43.063554 23.727982
489 163 2 -0.325600 70.296716 39.713507 26.472550
490 164 1 0.651200 45.447707 16.471240 45.990353
491 164 2 -0.325600 44.467810 17.714282 47.512344
492 164 2 -0.325600 46.427604 15.228198 44.468361
493 165 1 0.651200 38.609944 38.447330 54.238594
494 165 2 -0.325600 37.518169 40.327937 53.933380
495 165 2 -0.325600 39.701719 36.566724 54.543809
496 166 1 0.651200 69.161570 45.962118 19.431709
497 166 2 -0.325600 67.297093 46.709864 20.318508
498 166 2 -0.325600 71.026047 45.214372 18.544910
499 167 1 0.651200 24.164478 3.754776 -0.000000
500 167 2 -0.325600 22.472001 5.153821 -0.000000
501 167 2 -0.325600 25.856956 2.355730 -0.000000
502 168 1 0.651200 15.353593 25.156261 39.356201
503 168 2 -0.325600 17.025075 26.196438 40.328822
504 168 2 -0.325600 13.682110 24.116085 38.383581
505 169 1 0.651200 36.149312 51.939047 31.942054
506 169 2 -0.325600 34.536257 53.397070 31.635404
507 169 2 -0.325600 37.762366 50.481024 32.248703
508 170 1 0.651200 19.981961 6.251761 37.028189
509 170 2 -0.325600 18.763762 4.425386 37.074585
510 170 2 -0.325600 21.200160 8.078137 36.981793
511 171 1 0.651200 67.134832 65.956485 37.072666
512 171 2 -0.325600 66.350775 66.410350 35.072398
513 171 2 -0.325600 67.918889 65.502620 39.072933
514 172 1 0.651200 36.926792 54.533653 42.579765
515 172 2 -0.325600 34.788779 54.212231 42.195842
516 172 2 -0.325600 39.064805 54.855074 42.963689
517 173 1 0.651200 66.457091 67.013685 1.980494
518 173 2 -0.325600 64.399006 66.434166 1.480239
519 173 2 -0.325600 68.515176 67.593204 2.480749
520 174 1 0.651200 18.531465 54.923716 70.546251
521 174 2 -0.325600 18.284173 52.795219 70.066502
522 174 2 -0.325600 18.778756 57.052212 71.025999
523 175 1 0.651200 6.816536 23.797476 46.155575
524 175 2 -0.325600 7.948658 22.032378 45.504009
525 175 2 -0.325600 5.684414 25.562574 46.807141
526 176 1 0.651200 61.860736 5.474674 63.860397
527 176 2 -0.325600 63.864585 6.209431 63.344133
528 176 2 -0.325600 59.856886 4.739917 64.376662
529 177 1 0.651200 58.446690 31.296958 32.041114
530 177 2 -0.325600 56.839662 32.793246 32.021273
531 177 2 -0.325600 60.053718 29.800670 32.060955
532 178 1 0.651200 48.268141 63.782097 18.183169
533 178 2 -0.325600 47.562077 62.284886 16.740378
534 178 2 -0.325600 48.974206 65.279307 19.625959
535 179 1 0.651200 54.728383 69.662918 1.942263
536 179 2 -0.325600 55.808469 68.299837 3.282872
537 179 2 -0.325600 53.648296 71.026000 0.601655
538 180 1 0.651200 7.866225 69.176795 32.456016
539 180 2 -0.325600 6.690881 71.025639 32.604858
540 180 2 -0.325600 9.041569 67.327952 32.307173
541 181 1 0.651200 38.171851 69.102533 59.013110
542 181 2 -0.325600 37.131180 68.846267 57.096566
543 181 2 -0.325600 39.212522 69.358798 60.929654
544 182 1 0.651200 57.975843 57.400264 22.837748
545 182 2 -0.325600 55.978628 57.015583 23.665371
546 182 2 -0.325600 59.973059 57.784944 22.010124
547 183 1 0.651200 44.489645 49.864151 65.007130
548 183 2 -0.325600 46.325047 48.922955 64.253962
549 183 2 -0.325600 42.654244 50.805347 65.760298
550 184 1 0.651200 35.686686 7.877643 59.374061
551 184 2 -0.325600 35.228073 8.037359 61.515549
552 184 2 -0.325600 36.145300 7.717926 57.232572
553 185 1 0.651200 45.191532 46.361831 23.030010
554 185 2 -0.325600 43.280943 47.252757 23.644590
555 185 2 -0.325600 47.102122 45.470905 22.415430
556 186 1 0.651200 0.069368 39.099062 49.413105
557 186 2 -0.325600 0.004187 36.904869 49.468597
558 186 2 -0.325600 0.134549 41.293255 49.357613
559 187 1 0.651200 19.221927 51.476142 42.003838
560 187 2 -0.325600 21.047597 52.618056 42.433688
561 187 2 -0.325600 17.396257 50.334228 41.573988
562 188 1 0.651200 36.758969 54.086170 24.905148
563 188 2 -0.325600 37.651857 56.091061 24.834623
564 188 2 -0.325600 35.866081 52.081280 24.975674
565 189 1 0.651200 70.366872 21.353145 39.279431
566 189 2 -0.325600 69.728500 23.454130 39.267215
567 189 2 -0.325600 71.005245 19.252159 39.291646
568 190 1 0.651200 59.890942 44.728970 40.334100
569 190 2 -0.325600 58.131856 44.286499 39.096503
570 190 2 -0.325600 61.650028 45.171442 41.571697
571 191 1 0.651200 37.009006 65.347716 35.810571
572 191 2 -0.325600 37.376478 66.849252 37.370111
573 191 2 -0.325600 36.641534 63.846180 34.251032
574 192 1 0.651200 38.696538 42.797638 31.164350
575 192 2 -0.325600 36.990484 41.770352 30.239215
576 192 2 -0.325600 40.402591 43.824924 32.089485
577 193 1 0.651200 26.229796 44.078214 55.850475
578 193 2 -0.325600 27.369601 45.490316 57.086849
579 193 2 -0.325600 25.089991 42.666111 54.614101
580 194 1 0.651200 64.289451 23.785722 4.453199
581 194 2 -0.325600 63.817406 25.930070 4.480722
582 194 2 -0.325600 64.761496 21.641375 4.425676
583 195 1 0.651200 29.551841 39.499216 27.547963
584 195 2 -0.325600 30.649812 41.400301 27.594280
585 195 2 -0.325600 28.453870 37.598130 27.501646
586 196 1 0.651200 26.384919 11.314107 66.368330
587 196 2 -0.325600 25.489216 11.633824 64.389112
588 196 2 -0.325600 27.280623 10.994390 68.347549
589 197 1 0.651200 1.760035 69.270392 54.762904
590 197 2 -0.325600 2.029164 67.514521 53.472054
591 197 2 -0.325600 1.490905 71.026264 56.053754
592 198 1 0.651200 19.384919 60.354593 20.492609
593 198 2 -0.325600 18.584641 62.378780 20.782485
594 198 2 -0.325600 20.185197 58.330405 20.202733
595 199 1 0.651200 66.697040 12.261010 56.824556
596 199 2 -0.325600 67.338085 11.880409 54.759123
597 199 2 -0.325600 66.055995 12.641611 58.889990
598 200 1 0.651200 30.243321 44.591392 1.807201
599 200 2 -0.325600 28.781057 43.051803 2.366897
600 200 2 -0.325600 31.705585 46.130982 1.247506
601 201 1 0.651200 37.027163 57.990829 19.711069
602 201 2 -0.325600 36.812955 60.140298 20.105671
603 201 2 -0.325600 37.241371 55.841361 19.316467
604 202 1 0.651200 19.240286 12.031887 53.197091
605 202 2 -0.325600 20.567614 13.765398 53.431507
606 202 2 -0.325600 17.912957 10.298377 52.962676
607 203 1 0.651200 21.434134 16.026261 37.249584
608 203 2 -0.325600 20.728323 13.994256 37.690715
609 203 2 -0.325600 22.139945 18.058266 36.808454
610 204 1 0.651200 26.583118 42.471040 46.472685
611 204 2 -0.325600 26.847908 44.147900 45.079904