LAMMPS Description

1296  atoms
 864  bonds
 432  angles

 2  atom types
 1  bond types
 1  angle types


0.0 57.837 xlo xhi
0.0 57.837 ylo yhi
0.0 57.837 zlo zhi

Masses

  1 12.0107
  2 15.9994

Bond Coeffs

 1    2.196    0.45106005 -0.67297933 0.5857145

Angle Coeffs

  1    0.0861  180.000000

Atoms

1 1 1 0.651200 20.165791 43.155357 24.098946
2 1 2 -0.325600 17.998281 42.803748 24.107942
3 1 2 -0.325600 22.333301 43.506965 24.089950
4 2 1 0.651200 13.607574 41.672322 56.240415
5 2 2 -0.325600 11.452703 41.260641 56.334544
6 2 2 -0.325600 15.762444 42.084004 56.146286
7 3 1 0.651200 45.631965 40.762253 1.335103
8 3 2 -0.325600 45.419360 38.576711 1.339131
9 3 2 -0.325600 45.844569 42.947795 1.331076
10 4 1 0.651200 42.989992 50.825515 50.974271
11 4 2 -0.325600 43.936845 52.751137 50.508159
12 4 2 -0.325600 42.043139 48.899893 51.440383
13 5 1 0.651200 41.003252 32.080675 27.519516
14 5 2 -0.325600 43.168840 32.443844 27.507517
15 5 2 -0.325600 38.837663 31.717505 27.531515
16 6 1 0.651200 24.725430 12.399710 11.672063
17 6 2 -0.325600 23.743302 12.377601 9.708204
18 6 2 -0.325600 25.707558 12.421818 13.635923
19 7 1 0.651200 24.256612 48.710650 34.218425
20 7 2 -0.325600 26.024087 47.906581 33.193088
21 7 2 -0.325600 22.489137 49.514719 35.243762
22 8 1 0.651200 25.987598 32.835295 1.632752
23 8 2 -0.325600 25.244706 30.780447 1.850739
24 8 2 -0.325600 26.730489 34.890144 1.414765
25 9 1 0.651200 36.353718 8.672289 56.617899
26 9 2 -0.325600 34.888819 7.358519 57.592520
27 9 2 -0.325600 37.818618 9.986060 55.643277
28 10 1 0.651200 12.222014 8.676769 55.365608
29 10 2 -0.325600 11.205919 10.095962 56.697993
30 10 2 -0.325600 13.238109 7.257576 54.033222
31 11 1 0.651200 38.456744 39.733344 56.796407
32 11 2 -0.325600 36.338283 40.303440 56.701945
33 11 2 -0.325600 40.575205 39.163249 56.890869
34 12 1 0.651200 1.362097 7.810810 12.435400
35 12 2 -0.325600 1.686420 9.982541 12.420939
36 12 2 -0.325600 1.037774 5.639079 12.449861
37 13 1 0.651200 44.396441 36.401619 34.301678
38 13 2 -0.325600 44.876949 35.923461 36.390286
39 13 2 -0.325600 43.915933 36.879778 32.213069
40 14 1 0.651200 2.303047 16.876334 11.137958
41 14 2 -0.325600 4.498016 16.854418 11.079280
42 14 2 -0.325600 0.108079 16.898249 11.196635
43 15 1 0.651200 17.669353 14.476201 56.821049
44 15 2 -0.325600 19.428615 15.309671 57.836989
45 15 2 -0.325600 15.910092 13.642730 55.805108
46 16 1 0.651200 39.769730 28.864570 44.254141
47 16 2 -0.325600 39.524782 29.152691 46.417194
48 16 2 -0.325600 40.014679 28.576449 42.091088
49 17 1 0.651200 49.291601 33.952263 30.733236
50 17 2 -0.325600 49.083953 33.878990 32.918030
51 17 2 -0.325600 49.499250 34.025537 28.548442
52 18 1 0.651200 32.814986 13.733157 28.972190
53 18 2 -0.325600 32.664704 11.609130 29.508601
54 18 2 -0.325600 32.965269 15.857183 28.435780
55 19 1 0.651200 39.637651 15.640821 45.586022
56 19 2 -0.325600 40.073951 14.138952 44.044646
57 19 2 -0.325600 39.201350 17.142690 47.127398
58 20 1 0.651200 6.109733 35.965479 20.611860
59 20 2 -0.325600 7.912491 35.561187 19.425091
60 20 2 -0.325600 4.306975 36.369770 21.798630
61 21 1 0.651200 14.859613 36.516306 49.373117
62 21 2 -0.325600 14.429745 38.288051 48.149211
63 21 2 -0.325600 15.289480 34.744562 50.597022
64 22 1 0.651200 32.856362 57.875093 47.539267
65 22 2 -0.325600 34.969397 57.893505 48.136388
66 22 2 -0.325600 30.743326 57.856680 46.942146
67 23 1 0.651200 16.270074 42.244505 32.690829
68 23 2 -0.325600 17.223568 40.266529 32.707300
69 23 2 -0.325600 15.316580 44.222481 32.674357
70 24 1 0.651200 45.007645 52.816143 33.659308
71 24 2 -0.325600 45.731978 54.888442 33.607036
72 24 2 -0.325600 44.283313 50.743845 33.711579
73 25 1 0.651200 46.915985 9.297109 40.637430
74 25 2 -0.325600 48.897925 8.385186 40.388193
75 25 2 -0.325600 44.934045 10.209032 40.886666
76 26 1 0.651200 20.043987 46.492314 48.028575
77 26 2 -0.325600 22.087353 47.011960 47.415035
78 26 2 -0.325600 18.000620 45.972668 48.642115
79 27 1 0.651200 37.182094 36.913740 31.859149
80 27 2 -0.325600 38.668307 38.519571 32.044318
81 27 2 -0.325600 35.695881 35.307910 31.673981
82 28 1 0.651200 29.816557 39.038786 16.113770
83 28 2 -0.325600 28.801151 38.916443 14.170630
84 28 2 -0.325600 30.831963 39.161128 18.056910
85 29 1 0.651200 41.015794 51.641221 10.955559
86 29 2 -0.325600 39.704265 50.410576 12.215405
87 29 2 -0.325600 42.327324 52.871867 9.695714
88 30 1 0.651200 10.467271 32.390856 48.798371
89 30 2 -0.325600 10.793279 33.300737 46.826660
90 30 2 -0.325600 10.141264 31.480976 50.770083
91 31 1 0.651200 14.113379 2.425895 28.980241
92 31 2 -0.325600 12.143180 1.884253 28.176034
93 31 2 -0.325600 16.083577 2.967538 29.784449
94 32 1 0.651200 41.424741 7.696284 50.993799
95 32 2 -0.325600 40.904277 5.562994 50.993657
96 32 2 -0.325600 41.945204 9.829574 50.993941
97 33 1 0.651200 46.219793 27.072244 47.798221
98 33 2 -0.325600 47.703276 27.017756 49.416282
99 33 2 -0.325600 44.736310 27.126731 46.180161
100 34 1 0.651200 40.582379 57.207004 37.689235
101 34 2 -0.325600 42.584088 56.577008 38.335822
102 34 2 -0.325600 38.580670 57.837000 37.042647
103 35 1 0.651200 13.979733 38.827331 19.401547
104 35 2 -0.325600 15.510645 37.708663 20.509113
105 35 2 -0.325600 12.448821 39.945999 18.293982
106 36 1 0.651200 46.974929 19.606659 0.649495
107 36 2 -0.325600 48.766151 18.515099 0.000011
108 36 2 -0.325600 45.183707 20.698220 1.298979
109 37 1 0.651200 26.621622 40.237454 51.952053
110 37 2 -0.325600 27.667199 41.750672 50.752574
111 37 2 -0.325600 25.576045 38.724236 53.151532
112 38 1 0.651200 40.167912 1.991150 33.115008
113 38 2 -0.325600 38.318391 3.174781 33.125074
114 38 2 -0.325600 42.017432 0.807518 33.104942
115 39 1 0.651200 27.302753 7.445983 20.784333
116 39 2 -0.325600 28.384018 9.172383 21.604222
117 39 2 -0.325600 26.221489 5.719582 19.964445
118 40 1 0.651200 11.650794 27.687157 40.585874
119 40 2 -0.325600 12.029283 28.753684 42.467649
120 40 2 -0.325600 11.272304 26.620631 38.704099
121 41 1 0.651200 25.825053 33.233177 30.200590
122 41 2 -0.325600 27.694057 32.082411 30.134463
123 41 2 -0.325600 23.956050 34.383943 30.266717
124 42 1 0.651200 54.588370 4.260010 0.171491
125 42 2 -0.325600 55.339525 2.197491 0.231419
126 42 2 -0.325600 53.837215 6.322529 0.111562
127 43 1 0.651200 46.615150 33.321913 5.916472
128 43 2 -0.325600 45.152033 32.314729 7.207470
129 43 2 -0.325600 48.078268 34.329097 4.625473
130 44 1 0.651200 46.118756 14.360104 56.374551
131 44 2 -0.325600 47.880390 13.286457 55.622397
132 44 2 -0.325600 44.357121 15.433750 57.126706
133 45 1 0.651200 48.878181 48.257513 47.738122
134 45 2 -0.325600 50.917213 49.021498 48.021825
135 45 2 -0.325600 46.839149 47.493529 47.454420
136 46 1 0.651200 16.101195 27.534700 20.765047
137 46 2 -0.325600 17.563841 29.148804 20.487298
138 46 2 -0.325600 14.638549 25.920596 21.042796
139 47 1 0.651200 36.785359 24.150556 30.338260
140 47 2 -0.325600 37.217682 23.102362 32.218738
141 47 2 -0.325600 36.353036 25.198751 28.457783
142 48 1 0.651200 35.761356 6.719081 19.436021
143 48 2 -0.325600 33.733392 5.930387 19.140840
144 48 2 -0.325600 37.789320 7.507775 19.731202
145 49 1 0.651200 8.685261 20.896202 15.054587
146 49 2 -0.325600 7.879992 21.075936 13.019631
147 49 2 -0.325600 9.490530 20.716468 17.089543
148 50 1 0.651200 40.393106 43.828186 31.815045
149 50 2 -0.325600 42.477607 43.666374 31.143864
150 50 2 -0.325600 38.308606 43.989998 32.486226
151 51 1 0.651200 1.825852 36.180698 35.864901
152 51 2 -0.325600 1.556883 35.370096 33.841936
153 51 2 -0.325600 2.094821 36.991300 37.887867
154 52 1 0.651200 41.652072 16.067900 33.737743
155 52 2 -0.325600 42.099649 17.997853 32.790765
156 52 2 -0.325600 41.204495 14.137948 34.684721
157 53 1 0.651200 12.202828 26.114202 -0.002643
158 53 2 -0.325600 11.777126 23.960000 -0.001370
159 53 2 -0.325600 12.628530 28.268404 -0.003916
160 54 1 0.651200 23.776337 43.378176 31.027198
161 54 2 -0.325600 21.763956 43.460451 31.902049
162 54 2 -0.325600 25.788718 43.295901 30.152347
163 55 1 0.651200 28.765304 31.993330 9.242089
164 55 2 -0.325600 27.098405 32.866386 10.373915
165 55 2 -0.325600 30.432202 31.120273 8.110262
166 56 1 0.651200 36.362413 28.097830 21.820253
167 56 2 -0.325600 37.348648 29.890123 21.022234
168 56 2 -0.325600 35.376178 26.305536 22.618272
169 57 1 0.651200 57.075187 23.333557 19.562506
170 57 2 -0.325600 57.836998 21.289086 19.314331
171 57 2 -0.325600 56.313375 25.378028 19.810681
172 58 1 0.651200 31.206772 33.021908 48.603631
173 58 2 -0.325600 30.351315 31.279595 47.576817
174 58 2 -0.325600 32.062229 34.764222 49.630445
175 59 1 0.651200 54.151769 45.313120 41.627371
176 59 2 -0.325600 55.963815 45.737942 40.462113
177 59 2 -0.325600 52.339723 44.888298 42.792628
178 60 1 0.651200 13.901452 28.578659 26.128344
179 60 2 -0.325600 15.771814 29.685928 25.816079
180 60 2 -0.325600 12.031090 27.471389 26.440610
181 61 1 0.651200 5.779380 37.417913 8.564181
182 61 2 -0.325600 5.778669 38.505769 10.471634
183 61 2 -0.325600 5.780091 36.330056 6.656728
184 62 1 0.651200 49.364213 39.545087 47.234727
185 62 2 -0.325600 49.663414 40.985091 45.604182
186 62 2 -0.325600 49.065013 38.105083 48.865272
187 63 1 0.651200 0.552110 53.049240 43.368518
188 63 2 -0.325600 1.104219 52.106648 41.463654
189 63 2 -0.325600 0.000001 53.991832 45.273382
190 64 1 0.651200 26.829752 40.754007 3.195534
191 64 2 -0.325600 27.156577 42.171649 1.550758
192 64 2 -0.325600 26.502928 39.336365 4.840309
193 65 1 0.651200 36.731861 29.487846 7.460744
194 65 2 -0.325600 37.768140 27.798415 8.406131
195 65 2 -0.325600 35.695581 31.177278 6.515357
196 66 1 0.651200 -0.000722 38.825829 9.681408
197 66 2 -0.325600 -0.000722 40.549824 8.321388
198 66 2 -0.325600 -0.000722 37.101835 11.041428
199 67 1 0.651200 16.477971 38.735560 1.511084
200 67 2 -0.325600 16.685878 40.782088 2.279398
201 67 2 -0.325600 16.270065 36.689031 0.742770
202 68 1 0.651200 28.808081 7.880063 31.223523
203 68 2 -0.325600 27.228716 9.202073 30.462142
204 68 2 -0.325600 30.387447 6.558052 31.984905
205 69 1 0.651200 50.700916 55.997909 11.224605
206 69 2 -0.325600 52.638759 55.380330 12.052356
207 69 2 -0.325600 48.763073 56.615488 10.396854
208 70 1 0.651200 17.633982 31.563852 15.035997
209 70 2 -0.325600 16.891711 29.497253 15.039298
210 70 2 -0.325600 18.376253 33.630452 15.032697
211 71 1 0.651200 33.980558 -0.000213 48.983319
212 71 2 -0.325600 35.501055 -0.000213 47.399053
213 71 2 -0.325600 32.460061 -0.000213 50.567585
214 72 1 0.651200 21.574153 16.694198 17.054342
215 72 2 -0.325600 23.520060 16.440764 18.039749
216 72 2 -0.325600 19.628246 16.947632 16.068935
217 73 1 0.651200 54.492365 36.194995 37.464823
218 73 2 -0.325600 53.623104 35.485156 35.577411
219 73 2 -0.325600 55.361626 36.904834 39.352235
220 74 1 0.651200 30.749836 12.365653 55.789123
221 74 2 -0.325600 29.560049 12.444991 57.633011
222 74 2 -0.325600 31.939623 12.286315 53.945236
223 75 1 0.651200 48.015903 7.677536 21.310007
224 75 2 -0.325600 49.799524 7.087902 22.447038
225 75 2 -0.325600 46.232282 8.267170 20.172977
226 76 1 0.651200 7.833937 56.546192 0.538161
227 76 2 -0.325600 9.555165 55.255383 0.098848
228 76 2 -0.325600 6.112708 57.837000 0.977474
229 77 1 0.651200 33.701108 20.116172 18.639124
230 77 2 -0.325600 35.559598 18.965726 18.428650
231 77 2 -0.325600 31.842618 21.266617 18.849599
232 78 1 0.651200 29.832444 16.107631 43.125897
233 78 2 -0.325600 29.180008 14.078032 42.599715
234 78 2 -0.325600 30.484879 18.137229 43.652079
235 79 1 0.651200 54.471705 11.633275 55.611180
236 79 2 -0.325600 55.021618 10.932192 57.618140
237 79 2 -0.325600 53.921792 12.334358 53.604220
238 80 1 0.651200 24.430392 24.360990 35.584730
239 80 2 -0.325600 25.165116 26.422557 35.406035
240 80 2 -0.325600 23.695668 22.299423 35.763425
241 81 1 0.651200 32.769120 54.617898 56.270483
242 81 2 -0.325600 32.848727 52.627323 57.194108
243 81 2 -0.325600 32.689513 56.608473 55.346858
244 82 1 0.651200 35.149726 48.654104 22.619757
245 82 2 -0.325600 34.811484 49.988164 24.330806
246 82 2 -0.325600 35.487968 47.320044 20.908709
247 83 1 0.651200 23.894372 21.855622 55.037064
248 83 2 -0.325600 23.021856 22.571025 56.920869
249 83 2 -0.325600 24.766889 21.140220 53.153258
250 84 1 0.651200 7.101004 31.573735 36.768917
251 84 2 -0.325600 5.928901 31.584292 34.912072
252 84 2 -0.325600 8.273107 31.563178 38.625762
253 85 1 0.651200 32.475420 23.986338 48.650262
254 85 2 -0.325600 33.371009 22.097922 47.976751
255 85 2 -0.325600 31.579831 25.874753 49.323773
256 86 1 0.651200 21.889427 40.388035 38.407011
257 86 2 -0.325600 20.841625 39.099122 39.843195
258 86 2 -0.325600 22.937229 41.676948 36.970827
259 87 1 0.651200 34.895988 34.716355 39.227075
260 87 2 -0.325600 34.107019 36.460171 38.150764
261 87 2 -0.325600 35.684956 32.972540 40.303387
262 88 1 0.651200 42.200606 18.057332 52.112662
263 88 2 -0.325600 44.357486 18.100651 51.703023
264 88 2 -0.325600 40.043727 18.014012 52.522302
265 89 1 0.651200 40.318231 9.416798 12.168507
266 89 2 -0.325600 41.028460 7.345831 12.337262
267 89 2 -0.325600 39.608002 11.487766 11.999751
268 90 1 0.651200 32.577275 55.738105 22.100854
269 90 2 -0.325600 33.746924 54.423051 20.787703
270 90 2 -0.325600 31.407627 57.053158 23.414006
271 91 1 0.651200 19.919091 38.509109 52.358864
272 91 2 -0.325600 19.229057 40.583128 52.148847
273 91 2 -0.325600 20.609126 36.435090 52.568881
274 92 1 0.651200 38.506711 45.515822 6.800365
275 92 2 -0.325600 38.522167 43.516393 5.892700
276 92 2 -0.325600 38.491255 47.515250 7.708030
277 93 1 0.651200 12.250280 56.916069 37.575174
278 93 2 -0.325600 12.399839 55.980469 35.594241
279 93 2 -0.325600 12.100722 57.851669 39.556107
280 94 1 0.651200 38.279821 40.110454 37.348596
281 94 2 -0.325600 36.591928 41.493986 37.106390
282 94 2 -0.325600 39.967715 38.726921 37.590801
283 95 1 0.651200 50.117036 54.990594 3.128718
284 95 2 -0.325600 48.807593 54.132156 1.589155
285 95 2 -0.325600 51.426478 55.849032 4.668281
286 96 1 0.651200 28.794781 6.164134 54.083697
287 96 2 -0.325600 30.548069 6.959813 53.027910
288 96 2 -0.325600 27.041494 5.368454 55.139484
289 97 1 0.651200 -0.000608 30.410703 18.751435
290 97 2 -0.325600 -0.000511 31.581658 16.893836
291 97 2 -0.325600 -0.000705 29.239747 20.609034
292 98 1 0.651200 4.035662 26.146065 2.314558
293 98 2 -0.325600 3.174337 24.139881 2.079703
294 98 2 -0.325600 4.896987 28.152248 2.549413
295 99 1 0.651200 5.583134 48.305394 39.012998
296 99 2 -0.325600 4.391875 48.564958 37.186708
297 99 2 -0.325600 6.774394 48.045829 40.839289
298 100 1 0.651200 32.701968 44.487619 12.792118
299 100 2 -0.325600 33.324267 42.961491 11.341088
300 100 2 -0.325600 32.079669 46.013747 14.243147
301 101 1 0.651200 22.764271 46.933022 0.089485
302 101 2 -0.325600 20.571493 46.905461 0.202526
303 101 2 -0.325600 24.957048 46.960584 -0.023556
304 102 1 0.651200 40.701956 51.637653 3.190071
305 102 2 -0.325600 38.715917 50.701827 3.231184
306 102 2 -0.325600 42.687995 52.573479 3.148958
307 103 1 0.651200 6.684086 54.886057 7.168628
308 103 2 -0.325600 7.922412 53.153463 7.703865
309 103 2 -0.325600 5.445760 56.618651 6.633392
310 104 1 0.651200 52.511608 16.035584 9.033744
311 104 2 -0.325600 51.046463 17.658179 9.239522
312 104 2 -0.325600 53.976752 14.412988 8.827966
313 105 1 0.651200 30.367254 10.087542 37.458402
314 105 2 -0.325600 28.753220 10.594715 36.058588
315 105 2 -0.325600 31.981288 9.580368 38.858216
316 106 1 0.651200 23.494768 28.883759 55.996595
317 106 2 -0.325600 22.594715 28.105334 57.842067
318 106 2 -0.325600 24.394822 29.662184 54.151123
319 107 1 0.651200 48.009007 8.449848 6.361971
320 107 2 -0.325600 45.925485 7.818939 6.649550
321 107 2 -0.325600 50.092528 9.080758 6.074393
322 108 1 0.651200 54.094296 49.335194 3.901711
323 108 2 -0.325600 53.724541 48.668437 1.842457
324 108 2 -0.325600 54.464051 50.001951 5.960964
325 109 1 0.651200 3.936208 42.674530 25.821928
326 109 2 -0.325600 5.519360 41.495799 26.784233
327 109 2 -0.325600 2.353055 43.853260 24.859622
328 110 1 0.651200 40.220966 24.181612 50.359849
329 110 2 -0.325600 38.538436 23.778866 49.007555
330 110 2 -0.325600 41.903496 24.584358 51.712143
331 111 1 0.651200 29.294151 9.365423 5.810143
332 111 2 -0.325600 28.088376 7.581364 6.240319
333 111 2 -0.325600 30.499926 11.149481 5.379967
334 112 1 0.651200 30.510375 22.307685 25.288022
335 112 2 -0.325600 32.600402 21.634209 25.292890
336 112 2 -0.325600 28.420347 22.981161 25.283154
337 113 1 0.651200 45.369486 28.698195 38.550934
338 113 2 -0.325600 44.644251 26.924710 39.623592
339 113 2 -0.325600 46.094721 30.471680 37.478276
340 114 1 0.651200 48.392405 33.971337 21.747691
341 114 2 -0.325600 47.501884 33.008645 23.508943
342 114 2 -0.325600 49.282926 34.934029 19.986440
343 115 1 0.651200 38.470913 1.721682 15.963429
344 115 2 -0.325600 37.252957 2.501334 14.310996
345 115 2 -0.325600 39.688870 0.942030 17.615862
346 116 1 0.651200 9.673947 48.227444 19.037636
347 116 2 -0.325600 7.856546 47.219396 19.746650
348 116 2 -0.325600 11.491349 49.235492 18.328622
349 117 1 0.651200 56.182056 50.177553 26.411362
350 117 2 -0.325600 55.782389 49.185469 24.493591
351 117 2 -0.325600 56.581722 51.169637 28.329133
352 118 1 0.651200 23.271928 27.874978 15.517957
353 118 2 -0.325600 21.619298 27.318201 16.852357
354 118 2 -0.325600 24.924559 28.431756 14.183558
355 119 1 0.651200 0.647805 6.031919 2.886840
356 119 2 -0.325600 0.000001 8.074620 2.407744
357 119 2 -0.325600 1.295610 3.989218 3.365936
358 120 1 0.651200 15.644299 43.496702 38.409234
359 120 2 -0.325600 17.152003 45.047839 38.031594
360 120 2 -0.325600 14.136595 41.945565 38.786874
361 121 1 0.651200 16.779315 51.216827 39.166430
362 121 2 -0.325600 14.759694 50.359284 39.253384
363 121 2 -0.325600 18.798936 52.074369 39.079476
364 122 1 0.651200 42.543824 26.507169 31.814186
365 122 2 -0.325600 42.577518 24.324033 32.047843
366 122 2 -0.325600 42.510129 28.690304 31.580529
367 123 1 0.651200 22.649750 27.209467 27.288587
368 123 2 -0.325600 24.664668 28.049255 27.526645
369 123 2 -0.325600 20.634832 26.369679 27.050528
370 124 1 0.651200 26.429781 47.063256 18.663161
371 124 2 -0.325600 24.466585 47.992733 18.985252
372 124 2 -0.325600 28.392977 46.133779 18.341070
373 125 1 0.651200 33.995785 45.855910 54.654840
374 125 2 -0.325600 34.296742 45.409189 56.783613
375 125 2 -0.325600 33.694828 46.302631 52.526067
376 126 1 0.651200 18.104032 4.788789 9.705233
377 126 2 -0.325600 19.200952 3.125694 8.781819
378 126 2 -0.325600 17.007112 6.451884 10.628646
379 127 1 0.651200 33.733025 36.081855 25.312395
380 127 2 -0.325600 32.615894 35.538298 27.123023
381 127 2 -0.325600 34.850157 36.625412 23.501767
382 128 1 0.651200 53.390189 31.005701 57.001642
383 128 2 -0.325600 54.170289 28.997658 56.576181
384 128 2 -0.325600 52.610090 33.013745 57.427103
385 129 1 0.651200 49.335665 55.848257 51.129244
386 129 2 -0.325600 49.284517 53.946018 50.033487
387 129 2 -0.325600 49.386814 57.750495 52.225001
388 130 1 0.651200 1.301007 43.579758 32.558094
389 130 2 -0.325600 0.054485 43.462944 30.754113
390 130 2 -0.325600 2.547530 43.696572 34.362074
391 131 1 0.651200 57.853140 46.403535 32.135282
392 131 2 -0.325600 57.853140 45.238335 30.274067
393 131 2 -0.325600 57.853140 47.568734 33.996497
394 132 1 0.651200 48.723901 25.196097 32.289448
395 132 2 -0.325600 48.398016 27.348488 32.001661
396 132 2 -0.325600 49.049786 23.043706 32.577234
397 133 1 0.651200 36.357014 12.905740 16.699170
398 133 2 -0.325600 34.335426 13.338614 15.959161
399 133 2 -0.325600 38.378602 12.472867 17.439179
400 134 1 0.651200 17.784537 55.649589 56.457536
401 134 2 -0.325600 16.128889 56.663850 57.483163
402 134 2 -0.325600 19.440186 54.635327 55.431909
403 135 1 0.651200 41.696178 23.873335 8.576105
404 135 2 -0.325600 39.902865 22.800395 9.250374
405 135 2 -0.325600 43.489490 24.946275 7.901835
406 136 1 0.651200 26.556053 42.170122 44.864281
407 136 2 -0.325600 24.696142 43.234932 44.386035
408 136 2 -0.325600 28.415965 41.105312 45.342528
409 137 1 0.651200 28.114040 17.298320 50.724505
410 137 2 -0.325600 29.038606 17.310046 52.716201
411 137 2 -0.325600 27.189474 17.286594 48.732810
412 138 1 0.651200 20.005718 48.768636 29.100122
413 138 2 -0.325600 18.162728 47.619334 28.777162
414 138 2 -0.325600 21.848708 49.917938 29.423083
415 139 1 0.651200 22.403376 18.403844 44.773108
416 139 2 -0.325600 21.906548 20.402109 45.535936
417 139 2 -0.325600 22.900203 16.405578 44.010279
418 140 1 0.651200 36.619382 6.074918 6.703121
419 140 2 -0.325600 34.822439 4.849726 7.005961
420 140 2 -0.325600 38.416324 7.300110 6.400281
421 141 1 0.651200 6.023087 23.646249 42.568287
422 141 2 -0.325600 4.352177 25.010671 42.978440
423 141 2 -0.325600 7.693996 22.281828 42.158135
424 142 1 0.651200 52.583575 27.948753 39.250872
425 142 2 -0.325600 54.295351 27.568360 37.929155
426 142 2 -0.325600 50.871799 28.329145 40.572589
427 143 1 0.651200 21.556181 40.305268 19.532291
428 143 2 -0.325600 22.137535 42.256551 18.709896
429 143 2 -0.325600 20.974827 38.353985 20.354686
430 144 1 0.651200 35.980658 22.931748 3.431752
431 144 2 -0.325600 36.964504 23.203340 1.487506
432 144 2 -0.325600 34.996811 22.660157 5.375999
433 145 1 0.651200 19.540766 54.402298 2.722455
434 145 2 -0.325600 19.845024 52.335158 2.047053
435 145 2 -0.325600 19.236508 56.469439 3.397857
436 146 1 0.651200 47.293614 26.062236 26.565989
437 146 2 -0.325600 46.296166 28.018477 26.560762
438 146 2 -0.325600 48.291061 24.105994 26.571217
439 147 1 0.651200 28.261453 50.234650 38.470522
440 147 2 -0.325600 26.826454 50.862930 40.009304
441 147 2 -0.325600 29.696452 49.606370 36.931739
442 148 1 0.651200 7.772216 39.087844 31.520245
443 148 2 -0.325600 9.670029 40.183312 31.378586
444 148 2 -0.325600 5.874403 37.992377 31.661903
445 149 1 0.651200 42.686470 2.167949 11.471609
446 149 2 -0.325600 40.926635 2.130917 10.158818
447 149 2 -0.325600 44.446305 2.204980 12.784400
448 150 1 0.651200 35.274862 25.527860 54.728610
449 150 2 -0.325600 36.060603 23.645402 53.915730
450 150 2 -0.325600 34.489121 27.410318 55.541489
451 151 1 0.651200 26.678605 23.146573 46.312077
452 151 2 -0.325600 27.573588 22.751594 44.346166
453 151 2 -0.325600 25.783621 23.541551 48.277988
454 152 1 0.651200 9.203908 53.420257 42.757234
455 152 2 -0.325600 7.031724 53.588459 43.031345
456 152 2 -0.325600 11.376091 53.252055 42.483122
457 153 1 0.651200 9.061561 41.184839 5.804396
458 153 2 -0.325600 10.805568 40.015817 5.161249
459 153 2 -0.325600 7.317555 42.353861 6.447543
460 154 1 0.651200 17.516424 14.257258 31.227698
461 154 2 -0.325600 19.289488 13.552896 30.140533
462 154 2 -0.325600 15.743360 14.961620 32.314863
463 155 1 0.651200 7.670875 54.245697 18.830179
464 155 2 -0.325600 9.375853 55.454518 18.156672
465 155 2 -0.325600 5.965896 53.036877 19.503687
466 156 1 0.651200 29.403740 23.472244 30.806715
467 156 2 -0.325600 30.825649 21.799716 30.755398
468 156 2 -0.325600 27.981830 25.144772 30.858032
469 157 1 0.651200 27.860649 36.715641 41.768326
470 157 2 -0.325600 25.914593 37.729318 41.683858
471 157 2 -0.325600 29.806705 35.701964 41.852793
472 158 1 0.651200 35.842354 56.422401 7.642294
473 158 2 -0.325600 37.508038 54.991590 7.651631
474 158 2 -0.325600 34.176670 57.853212 7.632957
475 159 1 0.651200 14.935940 26.906507 31.266472
476 159 2 -0.325600 16.813910 27.998761 30.947066
477 159 2 -0.325600 13.057970 25.814252 31.585878
478 160 1 0.651200 0.704877 50.457223 20.861780
479 160 2 -0.325600 0.000000 52.478523 20.372595
480 160 2 -0.325600 1.409755 48.435922 21.350966
481 161 1 0.651200 39.564376 8.852718 39.460034
482 161 2 -0.325600 38.851574 10.907140 39.765113
483 161 2 -0.325600 40.277178 6.798296 39.154955
484 162 1 0.651200 21.171605 11.328575 41.960111
485 162 2 -0.325600 22.698088 10.934071 43.488517
486 162 2 -0.325600 19.645121 11.723079 40.431705
487 163 1 0.651200 21.902318 46.620283 41.071892
488 163 2 -0.325600 20.098660 46.936939 42.283649
489 163 2 -0.325600 23.705976 46.303626 39.860134
490 164 1 0.651200 23.344313 2.178782 29.365026
491 164 2 -0.325600 21.462664 2.944788 28.531694
492 164 2 -0.325600 25.225963 1.412776 30.198357
493 165 1 0.651200 16.817113 6.215320 35.146676
494 165 2 -0.325600 16.210424 8.320403 35.296213
495 165 2 -0.325600 17.423802 4.110236 34.997139
496 166 1 0.651200 32.907602 30.654381 0.281788
497 166 2 -0.325600 31.166859 31.963028 0.000594
498 166 2 -0.325600 34.648344 29.345734 0.562981
499 167 1 0.651200 18.924938 14.832689 48.058346
500 167 2 -0.325600 19.184744 16.777891 49.043484
501 167 2 -0.325600 18.665132 12.887486 47.073208
502 168 1 0.651200 22.456013 9.378284 57.837175
503 168 2 -0.325600 24.629911 9.688085 57.837321
504 168 2 -0.325600 20.282114 9.068483 57.837028
505 169 1 0.651200 37.053627 48.338039 46.293428
506 169 2 -0.325600 38.680697 47.141865 47.155764
507 169 2 -0.325600 35.426558 49.534213 45.431091
508 170 1 0.651200 8.473379 6.978777 5.604478
509 170 2 -0.325600 8.819775 5.713063 7.365099
510 170 2 -0.325600 8.126983 8.244491 3.843856
511 171 1 0.651200 39.820401 41.857468 19.433103
512 171 2 -0.325600 38.758708 43.532758 18.490752
513 171 2 -0.325600 40.882093 40.182179 20.375453
514 172 1 0.651200 16.914878 30.386140 53.531697
515 172 2 -0.325600 15.370082 30.759825 55.046879
516 172 2 -0.325600 18.459674 30.012455 52.016516
517 173 1 0.651200 12.725324 50.012833 3.079652
518 173 2 -0.325600 12.595152 48.855478 1.218095
519 173 2 -0.325600 12.855496 51.170187 4.941209
520 174 1 0.651200 28.920550 53.265403 29.683103
521 174 2 -0.325600 30.128550 51.434471 29.784277
522 174 2 -0.325600 27.712550 55.096334 29.581929
523 175 1 0.651200 1.895767 17.715346 41.151190
524 175 2 -0.325600 1.579162 15.545614 41.033574
525 175 2 -0.325600 2.212373 19.885079 41.268805
526 176 1 0.651200 12.076512 51.740254 49.839648
527 176 2 -0.325600 13.066358 53.500954 48.978283
528 176 2 -0.325600 11.086667 49.979554 50.701013
529 177 1 0.651200 19.852208 33.736415 45.612916
530 177 2 -0.325600 20.836128 35.092761 44.193749
531 177 2 -0.325600 18.868287 32.380068 47.032083
532 178 1 0.651200 -0.006385 12.121771 25.697451
533 178 2 -0.325600 -0.009681 11.498446 27.802983
534 178 2 -0.325600 -0.003088 12.745095 23.591919
535 179 1 0.651200 34.671536 54.831514 32.913479
536 179 2 -0.325600 35.082303 52.674425 32.906754
537 179 2 -0.325600 34.260769 56.988604 32.920204
538 180 1 0.651200 46.696573 15.425929 46.204684
539 180 2 -0.325600 47.743983 17.045934 47.253648
540 180 2 -0.325600 45.649163 13.805924 45.155720
541 181 1 0.651200 7.191996 29.269139 20.974366
542 181 2 -0.325600 5.635292 30.454159 19.977267
543 181 2 -0.325600 8.748701 28.084118 21.971465
544 182 1 0.651200 0.990336 36.690194 53.212848
545 182 2 -0.325600 1.980666 37.440392 55.023445
546 182 2 -0.325600 0.000006 35.939996 51.402252
547 183 1 0.651200 20.104852 57.517597 49.522513
548 183 2 -0.325600 22.182815 57.903355 48.926634
549 183 2 -0.325600 18.026890 57.131839 50.118392
550 184 1 0.651200 18.915694 56.460153 35.762818
551 184 2 -0.325600 18.729101 57.837351 37.462911
552 184 2 -0.325600 19.102287 55.082954 34.062724
553 185 1 0.651200 2.815728 24.828241 16.283917
554 185 2 -0.325600 2.665005 22.759627 17.004978
555 185 2 -0.325600 2.966451 26.896855 15.562855
556 186 1 0.651200 39.032027 49.840973 29.365946
557 186 2 -0.325600 40.762278 51.189653 29.270530
558 186 2 -0.325600 37.301776 48.492293 29.461362
559 187 1 0.651200 14.836604 9.611553 1.342608
560 187 2 -0.325600 16.697282 8.485604 1.645804
561 187 2 -0.325600 12.975927 10.737501 1.039411
562 188 1 0.651200 19.159868 35.830861 57.839990
563 188 2 -0.325600 17.370607 37.103793 57.839974
564 188 2 -0.325600 20.949128 34.557929 57.840006
565 189 1 0.651200 22.571297 37.125344 14.057262
566 189 2 -0.325600 21.433661 39.002416 14.122019
567 189 2 -0.325600 23.708933 35.248271 13.992505
568 190 1 0.651200 30.004443 32.060149 23.753198
569 190 2 -0.325600 31.760627 31.089464 22.861346
570 190 2 -0.325600 28.248259 33.030833 24.645051
571 191 1 0.651200 8.028799 17.481795 22.522753
572 191 2 -0.325600 9.990225 18.468839 22.541750
573 191 2 -0.325600 6.067372 16.494752 22.503755
574 192 1 0.651200 22.579313 29.622767 40.767532
575 192 2 -0.325600 20.523050 29.940935 41.469216
576 192 2 -0.325600 24.635577 29.304599 40.065848
577 193 1 0.651200 20.886216 34.504973 34.828792
578 193 2 -0.325600 21.007767 36.657283 34.410948
579 193 2 -0.325600 20.764664 32.352662 35.246635
580 194 1 0.651200 55.647599 54.305699 51.965846
581 194 2 -0.325600 56.566899 56.034060 50.971127
582 194 2 -0.325600 54.728299 52.577338 52.960565
583 195 1 0.651200 51.724646 5.186273 32.920163
584 195 2 -0.325600 52.633092 6.610427 34.323132
585 195 2 -0.325600 50.816200 3.762119 31.517195
586 196 1 0.651200 37.267916 18.001103 40.958062
587 196 2 -0.325600 35.182673 17.314421 40.912906
588 196 2 -0.325600 39.353160 18.687784 41.003219
589 197 1 0.651200 43.952433 55.589269 28.032743
590 197 2 -0.325600 42.057825 56.683881 28.217391
591 197 2 -0.325600 45.847041 54.494657 27.848096
592 198 1 0.651200 51.538598 29.198807 23.440887
593 198 2 -0.325600 51.595405 29.414847 25.625357
594 198 2 -0.325600 51.481790 28.982767 21.256416
595 199 1 0.651200 15.399381 34.251945 40.163164
596 199 2 -0.325600 13.275506 33.811083 40.504639
597 199 2 -0.325600 17.523256 34.692807 39.821688
598 200 1 0.651200 19.496201 22.920522 40.675640
599 200 2 -0.325600 21.207934 24.293518 40.757243
600 200 2 -0.325600 17.784467 21.547526 40.594038
601 201 1 0.651200 44.738240 45.265249 56.754155
602 201 2 -0.325600 44.679946 47.460307 56.742771
603 201 2 -0.325600 44.796534 43.070190 56.765539
604 202 1 0.651200 31.589074 15.523665 10.213375
605 202 2 -0.325600 33.664785 15.755911 9.535662
606 202 2 -0.325600 29.513363 15.291419 10.891089
607 203 1 0.651200 40.100612 32.059136 37.012316
608 203 2 -0.325600 39.215453 31.216064 35.188164
609 203 2 -0.325600 40.985771 32.902208 38.836468
610 204 1 0.651200 28.039356 46.102896 54.701451
611 204 2 -0.325600 28.603841 47.992826 53.736395