LAMMPS Description

1296  atoms
 864  bonds
 432  angles

 2  atom types
 1  bond types
 1  angle types


0.0 57.8367 xlo xhi
0.0 57.8367 ylo yhi
0.0 57.8367 zlo zhi

Masses

  1 12.0107
  2 15.9994

Bond Coeffs

 1    2.196    0.45106005 -0.67297933 0.5857145

Angle Coeffs

  1    0.0861  180.000000

Atoms

1 1 1 0.651200 21.312703 44.694103 24.958727
2 1 2 -0.325600 19.933895 43.116901 25.616856
3 1 2 -0.325600 22.691510 46.271306 24.300599
4 2 1 0.651200 14.230714 40.715836 56.925648
5 2 2 -0.325600 12.950985 42.477020 56.638708
6 2 2 -0.325600 15.510443 38.954652 57.212588
7 3 1 0.651200 45.965008 41.021389 1.437634
8 3 2 -0.325600 45.049150 42.802317 2.338362
9 3 2 -0.325600 46.880865 39.240461 0.536907
10 4 1 0.651200 42.648709 50.886169 50.495782
11 4 2 -0.325600 44.752892 50.259236 50.461434
12 4 2 -0.325600 40.544526 51.513102 50.530129
13 5 1 0.651200 40.725802 31.596994 27.376241
14 5 2 -0.325600 39.304386 30.282753 26.339826
15 5 2 -0.325600 42.147217 32.911236 28.412656
16 6 1 0.651200 24.679865 12.114462 11.134233
17 6 2 -0.325600 23.752212 10.276726 10.370036
18 6 2 -0.325600 25.607519 13.952197 11.898430
19 7 1 0.651200 23.494662 48.615064 34.145301
20 7 2 -0.325600 22.666250 50.641931 33.979912
21 7 2 -0.325600 24.323074 46.588197 34.310689
22 8 1 0.651200 26.317679 32.333111 2.249207
23 8 2 -0.325600 27.291396 31.467407 4.016759
24 8 2 -0.325600 25.343961 33.198814 0.481654
25 9 1 0.651200 36.512528 8.627889 55.850859
26 9 2 -0.325600 36.650652 10.099889 57.474420
27 9 2 -0.325600 36.374405 7.155890 54.227299
28 10 1 0.651200 12.398137 8.789170 55.364311
29 10 2 -0.325600 14.202172 7.630769 54.889576
30 10 2 -0.325600 10.594102 9.947571 55.839046
31 11 1 0.651200 38.945342 38.714529 55.867257
32 11 2 -0.325600 41.052396 39.204568 56.244076
33 11 2 -0.325600 36.838287 38.224490 55.490437
34 12 1 0.651200 2.714967 8.236615 13.340556
35 12 2 -0.325600 1.271572 6.581815 13.348193
36 12 2 -0.325600 4.158362 9.891415 13.332919
37 13 1 0.651200 43.912869 36.865464 34.610338
38 13 2 -0.325600 42.432878 38.302747 33.858237
39 13 2 -0.325600 45.392860 35.428182 35.362438
40 14 1 0.651200 2.112523 17.099063 11.544641
41 14 2 -0.325600 4.234545 17.662513 11.507837
42 14 2 -0.325600 -0.009500 16.535613 11.581445
43 15 1 0.651200 16.953669 15.447407 57.103248
44 15 2 -0.325600 16.163422 17.496089 57.118147
45 15 2 -0.325600 17.743915 13.398725 57.088348
46 16 1 0.651200 39.921868 30.449903 43.874805
47 16 2 -0.325600 40.568501 28.957025 42.400019
48 16 2 -0.325600 39.275236 31.942780 45.349590
49 17 1 0.651200 48.478044 34.027969 31.019627
50 17 2 -0.325600 47.252116 34.818975 29.378523
51 17 2 -0.325600 49.703971 33.236962 32.660730
52 18 1 0.651200 34.272646 13.984049 29.157410
53 18 2 -0.325600 34.221446 11.791481 29.266204
54 18 2 -0.325600 34.323846 16.176616 29.048616
55 19 1 0.651200 39.882995 15.478080 45.352710
56 19 2 -0.325600 38.286313 14.553134 46.543042
57 19 2 -0.325600 41.479677 16.403027 44.162378
58 20 1 0.651200 6.689735 35.532767 20.527217
59 20 2 -0.325600 6.269827 35.344351 22.674305
60 20 2 -0.325600 7.109644 35.721184 18.380129
61 21 1 0.651200 14.340422 37.542175 49.432960
62 21 2 -0.325600 15.216666 38.619136 51.134183
63 21 2 -0.325600 13.464178 36.465214 47.731736
64 22 1 0.651200 31.707622 56.532571 46.635723
65 22 2 -0.325600 30.933858 55.224792 45.050538
66 22 2 -0.325600 32.481387 57.840350 48.220909
67 23 1 0.651200 16.566434 41.226212 32.566414
68 23 2 -0.325600 16.065676 42.389680 30.772705
69 23 2 -0.325600 17.067192 40.062744 34.360123
70 24 1 0.651200 45.095763 52.832298 34.008268
71 24 2 -0.325600 47.113598 52.359274 34.733802
72 24 2 -0.325600 43.077928 53.305322 33.282733
73 25 1 0.651200 46.602192 9.857043 40.587642
74 25 2 -0.325600 45.277983 8.105765 40.551494
75 25 2 -0.325600 47.926401 11.608321 40.623789
76 26 1 0.651200 20.972293 46.256717 47.204528
77 26 2 -0.325600 19.959326 44.343460 47.572158
78 26 2 -0.325600 21.985260 48.169975 46.836898
79 27 1 0.651200 36.392141 34.883651 32.505717
80 27 2 -0.325600 38.291128 35.395713 31.529269
81 27 2 -0.325600 34.493154 34.371589 33.482165
82 28 1 0.651200 29.479268 39.747967 15.654035
83 28 2 -0.325600 29.713793 41.107910 17.362064
84 28 2 -0.325600 29.244743 38.388024 13.946006
85 29 1 0.651200 39.801511 52.140150 11.509291
86 29 2 -0.325600 38.755069 53.775811 10.483923
87 29 2 -0.325600 40.847953 50.504489 12.534660
88 30 1 0.651200 10.693363 32.050661 49.487963
89 30 2 -0.325600 12.258718 31.187139 50.763032
90 30 2 -0.325600 9.128007 32.914184 48.212894
91 31 1 0.651200 14.562711 3.422664 28.476364
92 31 2 -0.325600 12.954127 1.933928 28.610270
93 31 2 -0.325600 16.171295 4.911400 28.342458
94 32 1 0.651200 42.062870 8.199066 51.226477
95 32 2 -0.325600 42.038230 10.299700 51.865649
96 32 2 -0.325600 42.087510 6.098433 50.587305
97 33 1 0.651200 46.319992 27.563793 47.065197
98 33 2 -0.325600 44.346445 27.453516 46.108767
99 33 2 -0.325600 48.293540 27.674070 48.021627
100 34 1 0.651200 40.956981 57.665667 37.021647
101 34 2 -0.325600 42.035484 57.494651 38.926744
102 34 2 -0.325600 39.878477 57.836683 35.116551
103 35 1 0.651200 13.641306 39.919573 18.303547
104 35 2 -0.325600 11.920729 38.600538 18.652216
105 35 2 -0.325600 15.361884 41.238608 17.954878
106 36 1 0.651200 46.656402 19.662199 1.445774
107 36 2 -0.325600 45.147021 18.988906 2.891545
108 36 2 -0.325600 48.165783 20.335492 0.000002
109 37 1 0.651200 25.890851 40.019791 52.261849
110 37 2 -0.325600 27.091057 38.186392 52.403140
111 37 2 -0.325600 24.690646 41.853191 52.120558
112 38 1 0.651200 40.321402 2.002233 31.710360
113 38 2 -0.325600 41.781762 3.640437 31.784135
114 38 2 -0.325600 38.861041 0.364028 31.636584
115 39 1 0.651200 27.308911 7.508234 20.745817
116 39 2 -0.325600 26.399245 5.638897 20.038785
117 39 2 -0.325600 28.218577 9.377572 21.452849
118 40 1 0.651200 11.601489 28.456716 40.334250
119 40 2 -0.325600 11.694585 30.282051 41.551336
120 40 2 -0.325600 11.508392 26.631382 39.117165
121 41 1 0.651200 24.028408 32.736958 30.009282
122 41 2 -0.325600 26.096306 33.474937 29.977749
123 41 2 -0.325600 21.960510 31.998979 30.040815
124 42 1 0.651200 54.973292 5.218865 1.198694
125 42 2 -0.325600 54.192907 6.982542 0.148812
126 42 2 -0.325600 55.753677 3.455187 2.248576
127 43 1 0.651200 46.949458 34.044012 5.684133
128 43 2 -0.325600 47.806923 33.608073 7.658093
129 43 2 -0.325600 46.091992 34.479950 3.710172
130 44 1 0.651200 45.882641 14.370134 56.413890
131 44 2 -0.325600 47.728795 13.181941 56.455412
132 44 2 -0.325600 44.036487 15.558326 56.372368
133 45 1 0.651200 49.156104 48.111716 47.968223
134 45 2 -0.325600 50.047515 50.082441 48.346955
135 45 2 -0.325600 48.264692 46.140991 47.589491
136 46 1 0.651200 14.761287 27.557579 21.307970
137 46 2 -0.325600 13.715001 25.679237 20.861959
138 46 2 -0.325600 15.807573 29.435922 21.753980
139 47 1 0.651200 36.476168 22.636867 31.685632
140 47 2 -0.325600 38.168334 21.246866 31.847744
141 47 2 -0.325600 34.784002 24.026869 31.523521
142 48 1 0.651200 36.225308 6.777559 20.519361
143 48 2 -0.325600 38.373260 6.322906 20.481937
144 48 2 -0.325600 34.077355 7.232212 20.556784
145 49 1 0.651200 8.287286 21.027451 15.549279
146 49 2 -0.325600 7.474006 18.997390 15.747367
147 49 2 -0.325600 9.100567 23.057512 15.351191
148 50 1 0.651200 39.709270 43.278753 31.515248
149 50 2 -0.325600 37.765632 43.844364 32.366229
150 50 2 -0.325600 41.652907 42.713143 30.664268
151 51 1 0.651200 2.324812 36.435107 35.469279
152 51 2 -0.325600 2.670997 36.330458 33.303404
153 51 2 -0.325600 1.978626 36.539757 37.635154
154 52 1 0.651200 42.377322 17.354291 32.260214
155 52 2 -0.325600 40.680072 15.965427 32.149710
156 52 2 -0.325600 44.074571 18.743155 32.370718
157 53 1 0.651200 11.940675 26.394194 0.010579
158 53 2 -0.325600 11.513321 28.547946 0.033664
159 53 2 -0.325600 12.368029 24.240443 -0.012506
160 54 1 0.651200 23.580223 43.238979 30.009579
161 54 2 -0.325600 21.581690 42.971133 30.879023
162 54 2 -0.325600 25.578756 43.506825 29.140134
163 55 1 0.651200 30.246187 32.197722 10.128228
164 55 2 -0.325600 32.404397 32.297784 10.520564
165 55 2 -0.325600 28.087977 32.097659 9.735892
166 56 1 0.651200 36.779222 27.684452 21.816164
167 56 2 -0.325600 37.101977 28.954318 20.054040
168 56 2 -0.325600 36.456467 26.414587 23.578287
169 57 1 0.651200 56.369792 24.647797 19.214801
170 57 2 -0.325600 54.902931 26.062872 18.397677
171 57 2 -0.325600 57.836653 23.232723 20.031925
172 58 1 0.651200 32.126435 32.901464 48.735453
173 58 2 -0.325600 30.576515 31.581047 49.557679
174 58 2 -0.325600 33.676356 34.221881 47.913227
175 59 1 0.651200 54.441617 44.445976 42.241845
176 59 2 -0.325600 53.553122 45.927099 43.597817
177 59 2 -0.325600 55.330111 42.964853 40.885872
178 60 1 0.651200 14.484306 27.333806 26.801317
179 60 2 -0.325600 12.311231 27.646498 26.843470
180 60 2 -0.325600 16.657381 27.021113 26.759165
181 61 1 0.651200 3.953815 38.492573 7.664303
182 61 2 -0.325600 3.178283 37.303217 5.989253
183 61 2 -0.325600 4.729346 39.681928 9.339354
184 62 1 0.651200 49.556746 40.088145 45.141207
185 62 2 -0.325600 49.174246 41.055023 43.207131
186 62 2 -0.325600 49.939247 39.121267 47.075283
187 63 1 0.651200 1.598280 52.997355 42.696589
188 63 2 -0.325600 2.928997 52.568704 44.389887
189 63 2 -0.325600 0.267562 53.426007 41.003291
190 64 1 0.651200 27.374765 39.219724 3.852060
191 64 2 -0.325600 26.442474 41.205603 3.946550
192 64 2 -0.325600 28.307055 37.233845 3.757570
193 65 1 0.651200 35.522306 28.805259 7.500821
194 65 2 -0.325600 37.354598 29.959629 7.137576
195 65 2 -0.325600 33.690014 27.650889 7.864066
196 66 1 0.651200 16.822102 40.005469 1.111297
197 66 2 -0.325600 18.710319 39.858956 0.000000
198 66 2 -0.325600 14.933885 40.151982 2.222594
199 67 1 0.651200 28.131526 9.183977 30.173254
200 67 2 -0.325600 28.775519 8.315786 32.084622
201 67 2 -0.325600 27.487532 10.052169 28.261887
202 68 1 0.651200 50.585869 54.152289 9.586234
203 68 2 -0.325600 50.143755 56.297467 9.742930
204 68 2 -0.325600 51.027982 52.007110 9.429538
205 69 1 0.651200 18.198522 33.821893 17.230035
206 69 2 -0.325600 17.241073 35.766441 17.581936
207 69 2 -0.325600 19.155972 31.877345 16.878135
208 70 1 0.651200 33.667330 0.371669 48.638279
209 70 2 -0.325600 35.279401 0.210633 47.156016
210 70 2 -0.325600 32.055260 0.532705 50.120543
211 71 1 0.651200 21.569568 16.760558 16.402067
212 71 2 -0.325600 22.837525 18.344871 17.241142
213 71 2 -0.325600 20.301611 15.176245 15.562992
214 72 1 0.651200 53.748707 37.560487 37.504251
215 72 2 -0.325600 53.582907 37.893392 39.668390
216 72 2 -0.325600 53.914508 37.227583 35.340113
217 73 1 0.651200 29.374146 12.633444 55.929640
218 73 2 -0.325600 30.878722 11.097260 55.484444
219 73 2 -0.325600 27.869571 14.169629 56.374836
220 74 1 0.651200 47.343968 7.316292 21.411706
221 74 2 -0.325600 49.193940 8.357921 20.850973
222 74 2 -0.325600 45.493995 6.274664 21.972440
223 75 1 0.651200 9.037100 56.572340 1.202160
224 75 2 -0.325600 7.704355 57.837169 2.404578
225 75 2 -0.325600 10.369845 55.307511 -0.000259
226 76 1 0.651200 32.528271 19.399215 19.481111
227 76 2 -0.325600 33.029829 21.323458 18.549694
228 76 2 -0.325600 32.026714 17.474971 20.412528
229 77 1 0.651200 29.388553 17.972738 43.570961
230 77 2 -0.325600 29.258205 15.886479 42.898395
231 77 2 -0.325600 29.518900 20.058996 44.243527
232 78 1 0.651200 54.640273 11.725063 55.149392
233 78 2 -0.325600 54.461528 9.570906 55.536002
234 78 2 -0.325600 54.819017 13.879220 54.762783
235 79 1 0.651200 25.074024 25.604799 35.987949
236 79 2 -0.325600 23.169067 24.540676 36.234102
237 79 2 -0.325600 26.978981 26.668922 35.741796
238 80 1 0.651200 31.022400 54.842570 57.836721
239 80 2 -0.325600 30.543549 52.699555 57.836721
240 80 2 -0.325600 31.501250 56.985585 57.836721
241 81 1 0.651200 34.711757 48.828192 21.997893
242 81 2 -0.325600 33.869990 47.350890 20.608355
243 81 2 -0.325600 35.553524 50.305493 23.387432
244 82 1 0.651200 23.224909 20.912427 56.044740
245 82 2 -0.325600 23.750978 22.144182 54.304671
246 82 2 -0.325600 22.698839 19.680672 57.784809
247 83 1 0.651200 6.374329 31.549710 37.080398
248 83 2 -0.325600 5.688484 29.731153 36.058499
249 83 2 -0.325600 7.060174 33.368267 38.102296
250 84 1 0.651200 32.738846 24.284787 48.453776
251 84 2 -0.325600 32.521700 26.460857 48.652212
252 84 2 -0.325600 32.955993 22.108717 48.255339
253 85 1 0.651200 22.848087 41.062026 36.243353
254 85 2 -0.325600 21.472958 41.972369 37.693217
255 85 2 -0.325600 24.223215 40.151682 34.793489
256 86 1 0.651200 34.016771 35.014733 39.413503
257 86 2 -0.325600 36.080707 35.727283 39.646421
258 86 2 -0.325600 31.952835 34.302182 39.180586
259 87 1 0.651200 42.772433 17.931963 51.571091
260 87 2 -0.325600 44.883925 18.530940 51.639192
261 87 2 -0.325600 40.660941 17.332987 51.502990
262 88 1 0.651200 40.756013 8.909137 11.649061
263 88 2 -0.325600 41.630511 8.918419 9.634867
264 88 2 -0.325600 39.881515 8.899855 13.663255
265 89 1 0.651200 32.027960 54.912766 22.355467
266 89 2 -0.325600 31.696128 54.307399 20.270945
267 89 2 -0.325600 32.359791 55.518133 24.439988
268 90 1 0.651200 20.772910 36.867810 53.653440
269 90 2 -0.325600 20.802915 35.555101 51.893410
270 90 2 -0.325600 20.742905 38.180519 55.413469
271 91 1 0.651200 39.903265 45.274700 7.666411
272 91 2 -0.325600 38.531221 46.971574 7.421617
273 91 2 -0.325600 41.275310 43.577827 7.911206
274 92 1 0.651200 12.346670 56.329548 36.921979
275 92 2 -0.325600 13.923682 57.856871 36.875853
276 92 2 -0.325600 10.769658 54.802225 36.968106
277 93 1 0.651200 38.779272 40.122369 37.685472
278 93 2 -0.325600 37.527790 39.669500 35.938900
279 93 2 -0.325600 40.030754 40.575238 39.432043
280 94 1 0.651200 48.419700 55.607468 3.744785
281 94 2 -0.325600 47.956825 57.654523 3.098936
282 94 2 -0.325600 48.882574 53.560412 4.390634
283 95 1 0.651200 28.709734 6.236878 53.588695
284 95 2 -0.325600 29.117629 4.881013 55.267105
285 95 2 -0.325600 28.301840 7.592743 51.910284
286 96 1 0.651200 4.084019 25.589818 2.340631
287 96 2 -0.325600 4.726172 27.653478 2.728909
288 96 2 -0.325600 3.441866 23.526159 1.952353
289 97 1 0.651200 5.674271 48.835997 38.595531
290 97 2 -0.325600 4.338247 47.388387 39.565725
291 97 2 -0.325600 7.010294 50.283607 37.625337
292 98 1 0.651200 32.364657 45.072480 12.623161
293 98 2 -0.325600 30.729623 46.344227 11.894373
294 98 2 -0.325600 33.999692 43.800734 13.351949
295 99 1 0.651200 23.112868 47.407124 0.868699
296 99 2 -0.325600 20.964663 47.148855 1.243297
297 99 2 -0.325600 25.261072 47.665393 0.494100
298 100 1 0.651200 41.453430 52.538927 4.531991
299 100 2 -0.325600 39.311774 53.023588 4.517028
300 100 2 -0.325600 43.595086 52.054266 4.546955
301 101 1 0.651200 6.669082 54.525448 7.393225
302 101 2 -0.325600 7.825009 52.665110 7.550650
303 101 2 -0.325600 5.513155 56.385787 7.235801
304 102 1 0.651200 52.921381 15.035810 9.624803
305 102 2 -0.325600 51.385574 14.699464 8.091839
306 102 2 -0.325600 54.457187 15.372156 11.157767
307 103 1 0.651200 28.599964 11.064440 40.177987
308 103 2 -0.325600 26.970786 10.983309 41.648022
309 103 2 -0.325600 30.229143 11.145571 38.707951
310 104 1 0.651200 22.933116 29.215460 56.782648
311 104 2 -0.325600 22.021729 27.518357 57.836699
312 104 2 -0.325600 23.844502 30.912564 55.728596
313 105 1 0.651200 47.542124 9.106199 5.708597
314 105 2 -0.325600 47.314687 11.240732 5.246156
315 105 2 -0.325600 47.769561 6.971666 6.171037
316 106 1 0.651200 53.189772 49.782402 2.914373
317 106 2 -0.325600 51.671759 49.130937 1.467638
318 106 2 -0.325600 54.707784 50.433867 4.361107
319 107 1 0.651200 4.625764 42.823830 25.015890
320 107 2 -0.325600 4.637565 45.008312 24.792934
321 107 2 -0.325600 4.613963 40.639348 25.238847
322 108 1 0.651200 42.203103 24.337704 50.379992
323 108 2 -0.325600 40.086025 24.738456 49.956682
324 108 2 -0.325600 44.320180 23.936951 50.803302
325 109 1 0.651200 29.375879 9.378288 5.810052
326 109 2 -0.325600 28.173328 7.621804 6.348982
327 109 2 -0.325600 30.578429 11.134772 5.271122
328 110 1 0.651200 30.044170 21.781147 24.033348
329 110 2 -0.325600 28.275625 22.813085 23.240150
330 110 2 -0.325600 31.812715 20.749209 24.826546
331 111 1 0.651200 46.384213 27.134099 38.610534
332 111 2 -0.325600 47.829798 27.767298 37.083723
333 111 2 -0.325600 44.938628 26.500899 40.137345
334 112 1 0.651200 48.527379 34.624945 21.385729
335 112 2 -0.325600 47.613553 35.395046 19.543536
336 112 2 -0.325600 49.441206 33.854843 23.227922
337 113 1 0.651200 38.369356 2.337992 15.788162
338 113 2 -0.325600 39.877570 0.742202 15.811724
339 113 2 -0.325600 36.861143 3.933783 15.764600
340 114 1 0.651200 8.672705 46.490909 20.282171
341 114 2 -0.325600 6.864001 47.731249 20.391506
342 114 2 -0.325600 10.481410 45.250569 20.172836
343 115 1 0.651200 55.796449 50.661115 26.444621
344 115 2 -0.325600 57.656225 51.039872 27.548970
345 115 2 -0.325600 53.936673 50.282359 25.340272
346 116 1 0.651200 22.907279 27.851908 17.053526
347 116 2 -0.325600 24.083534 28.282991 15.250085
348 116 2 -0.325600 21.731023 27.420824 18.856967
349 117 1 0.651200 1.294391 6.058440 2.920857
350 117 2 -0.325600 0.019811 7.556705 3.896795
351 117 2 -0.325600 2.568972 4.560174 1.944919
352 118 1 0.651200 15.689146 44.148096 37.791870
353 118 2 -0.325600 14.340609 42.706242 38.753283
354 118 2 -0.325600 17.037682 45.589951 36.830457
355 119 1 0.651200 17.945361 51.671630 39.850710
356 119 2 -0.325600 16.310035 50.872410 38.622391
357 119 2 -0.325600 19.580687 52.470849 41.079029
358 120 1 0.651200 42.630572 26.995007 31.175431
359 120 2 -0.325600 40.911371 26.016272 32.128444
360 120 2 -0.325600 44.349774 27.973742 30.222418
361 121 1 0.651200 24.004902 27.150783 26.869069
362 121 2 -0.325600 23.362625 26.979213 24.776259
363 121 2 -0.325600 24.647180 27.322354 28.961879
364 122 1 0.651200 27.156874 48.485957 18.248742
365 122 2 -0.325600 28.726521 49.474595 17.073747
366 122 2 -0.325600 25.587227 47.497319 19.423737
367 123 1 0.651200 34.581757 45.260611 56.108034
368 123 2 -0.325600 35.300111 47.325908 56.308845
369 123 2 -0.325600 33.863402 43.195313 55.907224
370 124 1 0.651200 18.103938 4.788767 9.705182
371 124 2 -0.325600 19.476730 3.174892 9.128415
372 124 2 -0.325600 16.731146 6.402641 10.281949
373 125 1 0.651200 34.645265 35.871178 25.448161
374 125 2 -0.325600 35.046156 35.490519 23.323027
375 125 2 -0.325600 34.244374 36.251837 27.573296
376 126 1 0.651200 55.117621 30.579719 56.621397
377 126 2 -0.325600 53.856270 28.880460 56.035459
378 126 2 -0.325600 56.378972 32.278978 57.207334
379 127 1 0.651200 48.876607 55.885471 51.261704
380 127 2 -0.325600 47.041540 55.575511 52.427152
381 127 2 -0.325600 50.711673 56.195430 50.096257
382 128 1 0.651200 1.712729 44.468510 33.156935
383 128 2 -0.325600 2.430778 44.027882 35.184757
384 128 2 -0.325600 0.994680 44.909138 31.129113
385 129 1 0.651200 57.845622 45.362289 31.689234
386 129 2 -0.325600 57.845622 45.912386 29.563392
387 129 2 -0.325600 57.845622 44.812193 33.815076
388 130 1 0.651200 49.471232 25.194677 32.416251
389 130 2 -0.325600 50.051107 27.210134 31.765492
390 130 2 -0.325600 48.891357 23.179220 33.067010
391 131 1 0.651200 36.284332 15.024745 16.684498
392 131 2 -0.325600 34.436769 14.719170 15.537787
393 131 2 -0.325600 38.131894 15.330319 17.831209
394 132 1 0.651200 17.887529 55.499948 56.060047
395 132 2 -0.325600 18.688788 54.488379 57.836708
396 132 2 -0.325600 17.086270 56.511516 54.283387
397 133 1 0.651200 42.061833 24.151589 8.567886
398 133 2 -0.325600 41.945745 23.687943 6.424672
399 133 2 -0.325600 42.177922 24.615236 10.711100
400 134 1 0.651200 25.940586 44.403917 45.264099
401 134 2 -0.325600 25.771879 45.827294 43.600564
402 134 2 -0.325600 26.109294 42.980541 46.927634
403 135 1 0.651200 28.328929 17.238053 51.117972
404 135 2 -0.325600 27.698353 15.340268 50.211001
405 135 2 -0.325600 28.959505 19.135837 52.024944
406 136 1 0.651200 19.714139 48.525467 29.850025
407 136 2 -0.325600 18.328688 47.404165 31.132607
408 136 2 -0.325600 21.099590 49.646769 28.567443
409 137 1 0.651200 22.532488 17.709504 45.196804
410 137 2 -0.325600 23.955301 16.051852 45.419523
411 137 2 -0.325600 21.109675 19.367155 44.974084
412 138 1 0.651200 36.585501 6.125419 7.178191
413 138 2 -0.325600 38.033082 4.488530 6.961592
414 138 2 -0.325600 35.137920 7.762307 7.394791
415 139 1 0.651200 6.465217 24.056369 43.615775
416 139 2 -0.325600 6.620683 22.210649 44.795164
417 139 2 -0.325600 6.309751 25.902088 42.436386
418 140 1 0.651200 52.925435 30.183773 39.346239
419 140 2 -0.325600 52.999067 32.378180 39.377340
420 140 2 -0.325600 52.851802 27.989366 39.315138
421 141 1 0.651200 21.324251 39.078184 20.457641
422 141 2 -0.325600 20.868736 41.226140 20.433089
423 141 2 -0.325600 21.779767 36.930228 20.482192
424 142 1 0.651200 35.744397 23.175064 3.405899
425 142 2 -0.325600 36.114446 24.678920 1.849207
426 142 2 -0.325600 35.374348 21.671208 4.962591
427 143 1 0.651200 19.566192 52.996643 2.671638
428 143 2 -0.325600 18.541319 52.763847 0.743620
429 143 2 -0.325600 20.591065 53.229439 4.599655
430 144 1 0.651200 47.744312 24.703555 26.415798
431 144 2 -0.325600 46.567519 26.301255 25.475413
432 144 2 -0.325600 48.921105 23.105855 27.356183
433 145 1 0.651200 27.914927 49.851100 37.277325
434 145 2 -0.325600 26.919347 51.807747 37.323840
435 145 2 -0.325600 28.910507 47.894453 37.230810
436 146 1 0.651200 7.102431 39.376812 31.277403
437 146 2 -0.325600 7.143135 37.882742 29.668705
438 146 2 -0.325600 7.061727 40.870882 32.886101
439 147 1 0.651200 42.906083 2.035521 11.063070
440 147 2 -0.325600 42.137571 -0.010846 10.854307
441 147 2 -0.325600 43.674596 4.081888 11.271832
442 148 1 0.651200 34.668719 24.499860 53.599204
443 148 2 -0.325600 33.485950 26.204295 54.318767
444 148 2 -0.325600 35.851487 22.795425 52.879641
445 149 1 0.651200 25.519760 22.927304 47.335385
446 149 2 -0.325600 26.171541 24.364108 45.808105
447 149 2 -0.325600 24.867979 21.490500 48.862666
448 150 1 0.651200 9.212178 52.712620 42.919620
449 150 2 -0.325600 8.151387 50.850641 43.398750
450 150 2 -0.325600 10.272968 54.574600 42.440491
451 151 1 0.651200 9.230123 41.225950 5.721809
452 151 2 -0.325600 10.032097 39.234972 6.185121
453 151 2 -0.325600 8.428149 43.216927 5.258497
454 152 1 0.651200 17.519403 14.497278 31.758055
455 152 2 -0.325600 16.703711 12.470316 31.539229
456 152 2 -0.325600 18.335095 16.524239 31.976881
457 153 1 0.651200 6.549263 53.481544 18.746404
458 153 2 -0.325600 8.451778 54.278026 17.992836
459 153 2 -0.325600 4.646749 52.685063 19.499973
460 154 1 0.651200 2.117850 6.583568 57.853501
461 154 2 -0.325600 0.285413 5.375273 57.790188
462 154 2 -0.325600 3.950287 7.791862 57.916815
463 155 1 0.651200 29.049960 24.015858 28.968288
464 155 2 -0.325600 30.592908 25.360668 28.172922
465 155 2 -0.325600 27.507011 22.671049 29.763655
466 156 1 0.651200 26.811734 38.750536 41.935746
467 156 2 -0.325600 28.755832 37.788948 42.278734
468 156 2 -0.325600 24.867635 39.712124 41.592758
469 157 1 0.651200 35.321752 57.836618 7.356896
470 157 2 -0.325600 35.889212 57.837289 5.235623
471 157 2 -0.325600 34.754293 57.835947 9.478169
472 158 1 0.651200 15.697788 26.351428 32.138724
473 158 2 -0.325600 13.877803 27.567157 32.316109
474 158 2 -0.325600 17.517774 25.135700 31.961339
475 159 1 0.651200 40.036063 8.845093 39.059562
476 159 2 -0.325600 40.292568 10.995470 38.696393
477 159 2 -0.325600 39.779558 6.694715 39.422730
478 160 1 0.651200 21.472528 10.835023 41.785748
479 160 2 -0.325600 20.974574 12.973669 41.779155
480 160 2 -0.325600 21.970483 8.696377 41.792342
481 161 1 0.651200 21.194748 46.696012 40.671226
482 161 2 -0.325600 22.527150 48.070153 39.595006
483 161 2 -0.325600 19.862346 45.321870 41.747446
484 162 1 0.651200 23.755708 2.152341 27.707649
485 162 2 -0.325600 24.944880 0.445844 27.003697
486 162 2 -0.325600 22.566536 3.858837 28.411601
487 163 1 0.651200 16.076698 6.204428 34.463948
488 163 2 -0.325600 16.719029 8.215003 35.069595
489 163 2 -0.325600 15.434367 4.193852 33.858302
490 164 1 0.651200 32.102177 31.197720 0.105476
491 164 2 -0.325600 33.635957 32.765600 0.210750
492 164 2 -0.325600 30.568397 29.629840 0.000201
493 165 1 0.651200 18.091765 12.730321 46.935258
494 165 2 -0.325600 18.013844 14.793013 47.684285
495 165 2 -0.325600 18.169686 10.667630 46.186231
496 166 1 0.651200 23.254975 8.902512 57.838276
497 166 2 -0.325600 25.445717 9.052372 57.839433
498 166 2 -0.325600 21.064233 8.752652 57.837119
499 167 1 0.651200 37.461578 47.616101 46.889943
500 167 2 -0.325600 39.621668 47.296622 47.121799
501 167 2 -0.325600 35.301489 47.935579 46.658087
502 168 1 0.651200 8.147718 6.732959 4.849166
503 168 2 -0.325600 7.822100 4.570560 4.649628
504 168 2 -0.325600 8.473336 8.895357 5.048704
505 169 1 0.651200 39.675258 42.045131 19.407365
506 169 2 -0.325600 37.607178 42.689223 19.046807
507 169 2 -0.325600 41.743337 41.401040 19.767923
508 170 1 0.651200 17.126594 30.117078 53.563274
509 170 2 -0.325600 18.463573 30.574903 51.882592
510 170 2 -0.325600 15.789614 29.659253 55.243956
511 171 1 0.651200 12.649130 50.710590 3.217228
512 171 2 -0.325600 13.271439 51.872405 4.973567
513 171 2 -0.325600 12.026822 49.548774 1.460889
514 172 1 0.651200 29.012057 53.027888 28.879057
515 172 2 -0.325600 31.123676 52.428043 28.823716
516 172 2 -0.325600 26.900438 53.627733 28.934398
517 173 1 0.651200 1.876171 17.550700 41.039155
518 173 2 -0.325600 0.558257 17.985683 39.337480
519 173 2 -0.325600 3.194086 17.115716 42.740831
520 174 1 0.651200 11.628025 51.236372 50.136578
521 174 2 -0.325600 9.518050 50.682460 49.885584
522 174 2 -0.325600 13.737999 51.790283 50.387573
523 175 1 0.651200 19.708338 33.361670 45.891075
524 175 2 -0.325600 21.032879 31.678756 46.376050
525 175 2 -0.325600 18.383798 35.044585 45.406100
526 176 1 0.651200 34.923607 54.768962 32.770992
527 176 2 -0.325600 35.114614 56.941773 32.517576
528 176 2 -0.325600 34.732600 52.596151 33.024408
529 177 1 0.651200 47.228947 15.581115 46.218820
530 177 2 -0.325600 47.758322 13.469273 45.932990
531 177 2 -0.325600 46.699572 17.692956 46.504650
532 178 1 0.651200 4.888066 29.525518 20.375030
533 178 2 -0.325600 3.339714 31.082457 20.393885
534 178 2 -0.325600 6.436419 27.968579 20.356175
535 179 1 0.651200 1.800823 36.401132 53.495427
536 179 2 -0.325600 3.175827 37.954785 52.776167
537 179 2 -0.325600 0.425818 34.847479 54.214687
538 180 1 0.651200 19.227321 56.664829 36.039800
539 180 2 -0.325600 18.266719 55.559411 34.403614
540 180 2 -0.325600 20.187923 57.770247 37.675986
541 181 1 0.651200 3.144206 25.204402 14.648639
542 181 2 -0.325600 3.301811 25.030461 12.465358
543 181 2 -0.325600 2.986602 25.378342 16.831920
544 182 1 0.651200 38.473681 48.897478 29.066318
545 182 2 -0.325600 39.117898 50.374991 30.557542
546 182 2 -0.325600 37.829464 47.419965 27.575094
547 183 1 0.651200 14.493412 8.871921 1.157035
548 183 2 -0.325600 16.081440 7.585549 1.960291
549 183 2 -0.325600 12.905383 10.158294 0.353779
550 184 1 0.651200 23.311356 35.699442 13.059387
551 184 2 -0.325600 23.674253 33.533779 13.054976
552 184 2 -0.325600 22.948459 37.865105 13.063799
553 185 1 0.651200 30.619104 30.279084 24.878890
554 185 2 -0.325600 32.757332 30.637035 24.530087
555 185 2 -0.325600 28.480877 29.921134 25.227693
556 186 1 0.651200 6.827798 17.655044 22.178669
557 186 2 -0.325600 4.774515 17.559513 22.951141
558 186 2 -0.325600 8.881081 17.750576 21.406198
559 187 1 0.651200 22.846184 29.460507 41.006268
560 187 2 -0.325600 24.674293 30.348891 40.175244
561 187 2 -0.325600 21.018075 28.572123 41.837291
562 188 1 0.651200 21.083218 35.040652 35.811138
563 188 2 -0.325600 21.433441 34.088619 37.758646
564 188 2 -0.325600 20.732995 35.992685 33.863630
565 189 1 0.651200 55.829795 54.470148 52.051875
566 189 2 -0.325600 55.021342 52.537935 51.392507
567 189 2 -0.325600 56.638248 56.402361 52.711243
568 190 1 0.651200 51.474372 4.719634 31.994557
569 190 2 -0.325600 49.626334 4.890302 33.168199
570 190 2 -0.325600 53.322411 4.548966 30.820915
571 191 1 0.651200 38.152862 24.837817 57.841324
572 191 2 -0.325600 38.093243 27.032867 57.837994
573 191 2 -0.325600 38.212482 22.642767 57.844654
574 192 1 0.651200 36.305853 17.988679 40.192761
575 192 2 -0.325600 37.502933 19.754372 39.672053
576 192 2 -0.325600 35.108773 16.222985 40.713469
577 193 1 0.651200 44.507546 55.705054 28.407112
578 193 2 -0.325600 46.204032 56.697194 29.386604
579 193 2 -0.325600 42.811061 54.712914 27.427620
580 194 1 0.651200 51.052934 28.500207 23.176062
581 194 2 -0.325600 51.623881 28.479299 25.296296
582 194 2 -0.325600 50.481987 28.521115 21.055828
583 195 1 0.651200 15.890933 33.979632 40.360924
584 195 2 -0.325600 16.871389 32.113591 40.976074
585 195 2 -0.325600 14.910477 35.845672 39.745775
586 196 1 0.651200 20.265159 20.538768 39.319393
587 196 2 -0.325600 20.605201 18.691323 38.182234
588 196 2 -0.325600 19.925117 22.386213 40.456551
589 197 1 0.651200 44.686809 44.711775 56.054109
590 197 2 -0.325600 45.498427 43.720156 54.270916
591 197 2 -0.325600 43.875190 45.703394 57.837302
592 198 1 0.651200 32.111164 15.621368 10.618538
593 198 2 -0.325600 32.504964 17.761135 10.321676
594 198 2 -0.325600 31.717364 13.481600 10.915401
595 199 1 0.651200 41.466520 31.552807 36.811454
596 199 2 -0.325600 40.649407 33.415279 37.639301
597 199 2 -0.325600 42.283633 29.690334 35.983606
598 200 1 0.651200 27.531487 46.327000 54.356944
599 200 2 -0.325600 29.025315 44.883116 53.645967
600 200 2 -0.325600 26.037660 47.770885 55.067920
601 201 1 0.651200 47.384231 27.540345 6.795593
602 201 2 -0.325600 46.132094 28.047734 5.064547
603 201 2 -0.325600 48.636367 27.032957 8.526640
604 202 1 0.651200 9.850546 11.402440 12.524347
605 202 2 -0.325600 9.457461 9.312855 11.975778
606 202 2 -0.325600 10.243631 13.492025 13.072917
607 203 1 0.651200 17.791415 20.236617 1.990356
608 203 2 -0.325600 19.966237 20.326138 2.280086
609 203 2 -0.325600 15.616592 20.147097 1.700626
610 204 1 0.651200 46.393700 55.463967 44.536596
611 204 2 -0.325600 44.530210 56.231743 43.664969