LAMMPS Description

10368  atoms
 6912  bonds
 3456  angles

 2  atom types
 1  bond types
 1  angle types


0.0 115.673 xlo xhi
0.0 115.673 ylo yhi
0.0 115.673 zlo zhi

Masses

  1 12.0107
  2 15.9994

Bond Coeffs

 1    2.196    0.45106005 -0.67297933 0.5857145

Angle Coeffs

  1    0.0861  180.000000

Atoms

1 1 1 0.651200 56.125420 104.966028 101.062384
2 1 2 -0.325600 54.650774 103.777486 102.173509
3 1 2 -0.325600 57.600065 106.154569 99.951258
4 2 1 0.651200 3.523375 62.387613 114.137679
5 2 2 -0.325600 3.993610 64.381970 114.927128
6 2 2 -0.325600 3.053140 60.393256 113.348230
7 3 1 0.651200 66.332544 23.077924 22.873264
8 3 2 -0.325600 67.849001 21.777583 21.961518
9 3 2 -0.325600 64.816086 24.378265 23.785010
10 4 1 0.651200 33.868928 49.759408 3.014731
11 4 2 -0.325600 32.417206 51.245513 3.725931
12 4 2 -0.325600 35.320649 48.273302 2.303532
13 5 1 0.651200 7.334339 23.909962 3.634168
14 5 2 -0.325600 7.910123 23.996452 5.751431
15 5 2 -0.325600 6.758556 23.823471 1.516905
16 6 1 0.651200 91.170177 75.313608 55.795832
17 6 2 -0.325600 90.840661 75.261989 53.625449
18 6 2 -0.325600 91.499693 75.365228 57.966216
19 7 1 0.651200 34.637085 79.827939 42.744801
20 7 2 -0.325600 36.664400 79.094222 43.161290
21 7 2 -0.325600 32.609769 80.561655 42.328311
22 8 1 0.651200 31.505069 3.477998 29.199628
23 8 2 -0.325600 30.644251 1.474815 28.938746
24 8 2 -0.325600 32.365886 5.481182 29.460509
25 9 1 0.651200 92.976877 29.926578 58.780316
26 9 2 -0.325600 92.545014 27.864652 58.160829
27 9 2 -0.325600 93.408740 31.988505 59.399803
28 10 1 0.651200 93.316821 38.973921 105.771151
29 10 2 -0.325600 91.213470 38.884714 105.146838
30 10 2 -0.325600 95.420171 39.063128 106.395464
31 11 1 0.651200 10.642436 17.295010 68.765661
32 11 2 -0.325600 11.574040 19.267182 69.019552
33 11 2 -0.325600 9.710832 15.322837 68.511770
34 12 1 0.651200 9.601867 20.723673 94.314777
35 12 2 -0.325600 8.151415 20.085418 95.834853
36 12 2 -0.325600 11.052319 21.361928 92.794702
37 13 1 0.651200 73.336886 58.652097 60.134842
38 13 2 -0.325600 72.914395 56.522377 60.462870
39 13 2 -0.325600 73.759377 60.781818 59.806814
40 14 1 0.651200 98.756781 78.686459 32.149813
41 14 2 -0.325600 97.262897 77.984679 30.701494
42 14 2 -0.325600 100.250665 79.388239 33.598131
43 15 1 0.651200 109.485088 49.716888 101.535644
44 15 2 -0.325600 109.233927 48.071882 102.968363
45 15 2 -0.325600 109.736250 51.361894 100.102926
46 16 1 0.651200 18.037377 97.665723 73.939223
47 16 2 -0.325600 17.305592 99.665734 74.474252
48 16 2 -0.325600 18.769161 95.665711 73.404194
49 17 1 0.651200 23.484250 33.915068 38.053717
50 17 2 -0.325600 23.657287 32.586717 36.313788
51 17 2 -0.325600 23.311213 35.243420 39.793645
52 18 1 0.651200 33.453839 45.431600 22.383210
53 18 2 -0.325600 35.595429 45.390735 21.899754
54 18 2 -0.325600 31.312248 45.472464 22.866666
55 19 1 0.651200 110.032338 30.775161 60.388996
56 19 2 -0.325600 110.760253 32.490875 61.550148
57 19 2 -0.325600 109.304424 29.059447 59.227843
58 20 1 0.651200 95.641787 78.029873 5.160931
59 20 2 -0.325600 94.226568 77.611865 6.787041
60 20 2 -0.325600 97.057006 78.447881 3.534821
61 21 1 0.651200 67.238685 17.717184 33.684300
62 21 2 -0.325600 68.083800 15.818514 34.393272
63 21 2 -0.325600 66.393570 19.615854 32.975328
64 22 1 0.651200 48.292463 26.598084 38.525661
65 22 2 -0.325600 49.114582 24.587816 38.202010
66 22 2 -0.325600 47.470344 28.608353 38.849312
67 23 1 0.651200 12.939622 48.672907 0.075650
68 23 2 -0.325600 14.631170 47.274748 0.000617
69 23 2 -0.325600 11.248075 50.071065 0.150682
70 24 1 0.651200 19.480607 61.822382 38.486720
71 24 2 -0.325600 21.296362 61.383031 37.332678
72 24 2 -0.325600 17.664852 62.261732 39.640763
73 25 1 0.651200 33.189179 44.782308 70.084404
74 25 2 -0.325600 32.137431 44.190311 68.249962
75 25 2 -0.325600 34.240926 45.374304 71.918845
76 26 1 0.651200 91.471103 49.866347 92.081359
77 26 2 -0.325600 90.778032 47.847460 91.566037
78 26 2 -0.325600 92.164174 51.885234 92.596681
79 27 1 0.651200 49.561704 71.648807 49.200287
80 27 2 -0.325600 51.004836 71.137955 47.626054
81 27 2 -0.325600 48.118573 72.159659 50.774521
82 28 1 0.651200 64.648513 36.156524 77.424607
83 28 2 -0.325600 65.314098 38.064733 78.283413
84 28 2 -0.325600 63.982929 34.248316 76.565801
85 29 1 0.651200 62.753742 66.237092 59.481992
86 29 2 -0.325600 60.783052 66.228286 60.450554
87 29 2 -0.325600 64.724432 66.245898 58.513429
88 30 1 0.651200 45.906602 30.405353 92.681284
89 30 2 -0.325600 46.549542 29.722135 94.666643
90 30 2 -0.325600 45.263663 31.088570 90.695924
91 31 1 0.651200 30.734486 55.701560 28.846277
92 31 2 -0.325600 28.583550 55.273836 28.957344
93 31 2 -0.325600 32.885422 56.129285 28.735210
94 32 1 0.651200 31.584212 16.635257 35.381423
95 32 2 -0.325600 32.592511 15.180039 36.680453
96 32 2 -0.325600 30.575912 18.090476 34.082392
97 33 1 0.651200 28.949539 0.055802 100.385734
98 33 2 -0.325600 31.127484 -0.000166 100.111446
99 33 2 -0.325600 26.771594 0.111770 100.660022
100 34 1 0.651200 63.572557 53.849447 77.184548
101 34 2 -0.325600 63.585581 55.081211 79.002348
102 34 2 -0.325600 63.559533 52.617682 75.366748
103 35 1 0.651200 69.004736 79.670920 44.440879
104 35 2 -0.325600 69.986938 81.572431 44.932149
105 35 2 -0.325600 68.022534 77.769409 43.949610
106 36 1 0.651200 29.767787 87.782171 13.847525
107 36 2 -0.325600 30.071851 89.945786 13.628152
108 36 2 -0.325600 29.463723 85.618556 14.066899
109 37 1 0.651200 52.522440 91.706761 52.775089
110 37 2 -0.325600 51.780611 89.647880 52.594797
111 37 2 -0.325600 53.264270 93.765643 52.955382
112 38 1 0.651200 69.703898 33.747270 82.178094
113 38 2 -0.325600 70.424498 33.692809 84.251637
114 38 2 -0.325600 68.983298 33.801730 80.104552
115 39 1 0.651200 51.386687 95.688909 64.449707
116 39 2 -0.325600 52.277988 96.255855 66.374795
117 39 2 -0.325600 50.495386 95.121963 62.524618
118 40 1 0.651200 94.299736 8.366476 1.548544
119 40 2 -0.325600 95.960229 7.004796 1.089846
120 40 2 -0.325600 92.639244 9.728155 2.007242
121 41 1 0.651200 20.311844 76.385766 65.557745
122 41 2 -0.325600 21.165419 75.753241 63.635993
123 41 2 -0.325600 19.458269 77.018291 67.479497
124 42 1 0.651200 5.773323 18.490522 100.755736
125 42 2 -0.325600 7.360978 17.024768 100.364932
126 42 2 -0.325600 4.185668 19.956276 101.146540
127 43 1 0.651200 48.801585 109.100393 66.754647
128 43 2 -0.325600 48.204868 107.560938 65.306953
129 43 2 -0.325600 49.398301 110.639848 68.202341
130 44 1 0.651200 102.025633 59.404635 34.885748
131 44 2 -0.325600 103.524605 60.849092 35.584631
132 44 2 -0.325600 100.526662 57.960178 34.186865
133 45 1 0.651200 63.935865 76.715461 38.844092
134 45 2 -0.325600 63.263749 78.705759 38.204730
135 45 2 -0.325600 64.607981 74.725163 39.483453
136 46 1 0.651200 111.294662 51.957364 75.633448
137 46 2 -0.325600 110.227973 53.774117 75.014261
138 46 2 -0.325600 112.361352 50.140611 76.252635
139 47 1 0.651200 113.454199 55.609361 52.746346
140 47 2 -0.325600 111.376631 55.145566 52.207444
141 47 2 -0.325600 115.531766 56.073157 53.285249
142 48 1 0.651200 62.419197 19.370673 1.987002
143 48 2 -0.325600 61.027542 21.055352 1.770295
144 48 2 -0.325600 63.810852 17.685994 2.203710
145 49 1 0.651200 90.156580 91.799033 60.657110
146 49 2 -0.325600 88.108071 92.111046 61.383793
147 49 2 -0.325600 92.205089 91.487019 59.930427
148 50 1 0.651200 78.643695 88.127815 39.245417
149 50 2 -0.325600 79.557413 90.110143 39.484800
150 50 2 -0.325600 77.729978 86.145486 39.006034
151 51 1 0.651200 42.887044 50.851831 13.673255
152 51 2 -0.325600 41.258392 49.552547 12.979594
153 51 2 -0.325600 44.515695 52.151114 14.366917
154 52 1 0.651200 42.418102 11.692665 41.102462
155 52 2 -0.325600 40.896804 10.109563 41.067075
156 52 2 -0.325600 43.939400 13.275766 41.137849
157 53 1 0.651200 79.347666 93.327990 76.957933
158 53 2 -0.325600 79.020828 94.130135 78.975741
159 53 2 -0.325600 79.674503 92.525844 74.940124
160 54 1 0.651200 87.114970 93.919424 109.698680
161 54 2 -0.325600 87.089425 96.035213 109.111660
162 54 2 -0.325600 87.140515 91.803634 110.285701
163 55 1 0.651200 49.054991 35.382003 10.020676
164 55 2 -0.325600 47.107060 35.655012 10.996812
165 55 2 -0.325600 51.002922 35.108994 9.044540
166 56 1 0.651200 44.796479 88.279116 105.467378
167 56 2 -0.325600 43.923458 87.182890 107.157921
168 56 2 -0.325600 45.669499 89.375342 103.776836
169 57 1 0.651200 74.117351 98.292371 74.994909
170 57 2 -0.325600 72.050313 99.026453 75.096347
171 57 2 -0.325600 76.184388 97.558290 74.893471
172 58 1 0.651200 44.463347 59.889203 23.807390
173 58 2 -0.325600 43.198319 61.611339 23.301663
174 58 2 -0.325600 45.728375 58.167066 24.313117
175 59 1 0.651200 75.938319 34.264357 40.551099
176 59 2 -0.325600 75.384288 33.424291 42.502802
177 59 2 -0.325600 76.492350 35.104424 38.599395
178 60 1 0.651200 38.786603 112.455687 40.053252
179 60 2 -0.325600 40.292435 111.267397 41.122011
180 60 2 -0.325600 37.280770 113.643978 38.984494
181 61 1 0.651200 98.561897 11.342886 23.264921
182 61 2 -0.325600 97.411166 9.476126 23.378208
183 61 2 -0.325600 99.712628 13.209646 23.151633
184 62 1 0.651200 104.394435 88.526790 96.834659
185 62 2 -0.325600 105.887629 89.332998 98.228292
186 62 2 -0.325600 102.901241 87.720581 95.441027
187 63 1 0.651200 59.122712 114.839792 46.865832
188 63 2 -0.325600 60.469110 114.006584 48.387274
189 63 2 -0.325600 57.776313 115.673000 45.344390
190 64 1 0.651200 2.120577 78.289579 75.834611
191 64 2 -0.325600 0.256167 77.812404 76.892008
192 64 2 -0.325600 3.984988 78.766753 74.777214
193 65 1 0.651200 1.923993 80.541513 3.188622
194 65 2 -0.325600 2.700529 78.490559 3.077299
195 65 2 -0.325600 1.147457 82.592466 3.299944
196 66 1 0.651200 62.256774 64.976096 20.516274
197 66 2 -0.325600 63.267624 66.897467 20.187142
198 66 2 -0.325600 61.245924 63.054726 20.845406
199 67 1 0.651200 84.789903 92.567991 23.254937
200 67 2 -0.325600 86.911512 93.133629 23.280241
201 67 2 -0.325600 82.668294 92.002354 23.229634
202 68 1 0.651200 111.915739 53.517788 40.776856
203 68 2 -0.325600 111.534148 53.698037 38.621929
204 68 2 -0.325600 112.297330 53.337540 42.931783
205 69 1 0.651200 78.422386 60.540653 50.832596
206 69 2 -0.325600 79.692277 59.001397 51.749044
207 69 2 -0.325600 77.152494 62.079909 49.916149
208 70 1 0.651200 58.281265 86.503010 35.807503
209 70 2 -0.325600 58.840839 88.220190 37.056495
210 70 2 -0.325600 57.721691 84.785830 34.558512
211 71 1 0.651200 73.316863 12.457205 41.095575
212 71 2 -0.325600 71.258429 12.851077 40.440192
213 71 2 -0.325600 75.375296 12.063333 41.750957
214 72 1 0.651200 10.852766 25.306213 100.098251
215 72 2 -0.325600 12.693668 26.175958 100.920707
216 72 2 -0.325600 9.011865 24.436467 99.275795
217 73 1 0.651200 84.967759 68.018195 99.200018
218 73 2 -0.325600 86.207272 69.829119 99.277310
219 73 2 -0.325600 83.728247 66.207271 99.122726
220 74 1 0.651200 112.347686 109.116848 102.723163
221 74 2 -0.325600 113.622847 110.761645 103.423461
222 74 2 -0.325600 111.072526 107.472050 102.022865
223 75 1 0.651200 8.638477 21.938381 57.933280
224 75 2 -0.325600 10.545783 21.998060 59.019756
225 75 2 -0.325600 6.731171 21.878701 56.846803
226 76 1 0.651200 94.814065 95.513303 115.672259
227 76 2 -0.325600 96.327153 97.104646 115.671506
228 76 2 -0.325600 93.300977 93.921959 115.673012
229 77 1 0.651200 76.830952 12.030174 106.795733
230 77 2 -0.325600 75.718159 11.594915 104.953439
231 77 2 -0.325600 77.943746 12.465433 108.638028
232 78 1 0.651200 44.989903 99.317136 41.343016
233 78 2 -0.325600 43.300609 98.871709 40.012719
234 78 2 -0.325600 46.679197 99.762563 42.673313
235 79 1 0.651200 8.275454 40.465211 103.599739
236 79 2 -0.325600 9.566872 38.841469 102.880359
237 79 2 -0.325600 6.984035 42.088954 104.319119
238 80 1 0.651200 19.414201 82.263667 38.071220
239 80 2 -0.325600 21.503776 82.790539 38.492991
240 80 2 -0.325600 17.324625 81.736794 37.649449
241 81 1 0.651200 9.251571 23.564642 81.182937
242 81 2 -0.325600 10.669115 24.915179 82.177135
243 81 2 -0.325600 7.834028 22.214105 80.188739
244 82 1 0.651200 25.663433 21.044959 42.494508
245 82 2 -0.325600 23.642996 21.453617 43.251240
246 82 2 -0.325600 27.683870 20.636301 41.737776
247 83 1 0.651200 19.347798 76.751558 14.513473
248 83 2 -0.325600 20.121427 74.836106 13.768925
249 83 2 -0.325600 18.574170 78.667011 15.258021
250 84 1 0.651200 32.217693 67.783579 76.741925
251 84 2 -0.325600 34.318043 67.145363 76.686975
252 84 2 -0.325600 30.117343 68.421794 76.796875
253 85 1 0.651200 62.213188 56.924890 13.943895
254 85 2 -0.325600 63.678469 58.099700 15.081694
255 85 2 -0.325600 60.747908 55.750080 12.806097
256 86 1 0.651200 70.864096 112.775533 49.411238
257 86 2 -0.325600 69.540460 113.747341 47.953367
258 86 2 -0.325600 72.187732 111.803726 50.869109
259 87 1 0.651200 89.212186 58.129541 0.448658
260 87 2 -0.325600 90.022841 56.118433 0.102110
261 87 2 -0.325600 88.401532 60.140648 0.795205
262 88 1 0.651200 47.297493 77.870261 40.192460
263 88 2 -0.325600 48.086850 79.812898 39.540626
264 88 2 -0.325600 46.508136 75.927624 40.844294
265 89 1 0.651200 92.492118 113.461353 94.607990
266 89 2 -0.325600 91.925692 111.819842 95.952019
267 89 2 -0.325600 93.058544 115.102863 93.263961
268 90 1 0.651200 52.634033 57.799713 13.330757
269 90 2 -0.325600 53.860199 59.572523 12.911859
270 90 2 -0.325600 51.407868 56.026904 13.749654
271 91 1 0.651200 110.011597 80.513788 32.683969
272 91 2 -0.325600 107.944498 80.866059 33.335748
273 91 2 -0.325600 112.078696 80.161517 32.032190
274 92 1 0.651200 50.257608 27.300200 30.567485
275 92 2 -0.325600 52.018726 28.274846 29.689797
276 92 2 -0.325600 48.496489 26.325555 31.445173
277 93 1 0.651200 102.079121 56.889957 40.706449
278 93 2 -0.325600 103.254392 56.038771 39.058411
279 93 2 -0.325600 100.903850 57.741142 42.354488
280 94 1 0.651200 98.148488 79.112601 43.717216
281 94 2 -0.325600 100.071184 80.151527 43.503482
282 94 2 -0.325600 96.225793 78.073675 43.930950
283 95 1 0.651200 20.084415 52.930837 81.071108
284 95 2 -0.325600 20.798887 54.963676 80.648138
285 95 2 -0.325600 19.369943 50.897997 81.494078
286 96 1 0.651200 55.355894 23.513395 83.656716
287 96 2 -0.325600 56.785988 22.125091 84.578264
288 96 2 -0.325600 53.925799 24.901700 82.735169
289 97 1 0.651200 10.358576 24.365517 112.206928
290 97 2 -0.325600 12.502974 23.937884 112.408167
291 97 2 -0.325600 8.214178 24.793150 112.005688
292 98 1 0.651200 91.539467 19.190092 28.879874
293 98 2 -0.325600 90.527069 17.514779 27.884794
294 98 2 -0.325600 92.551865 20.865405 29.874954
295 99 1 0.651200 48.321272 7.832537 85.868907
296 99 2 -0.325600 46.643922 9.015245 85.088195
297 99 2 -0.325600 49.998621 6.649829 86.649618
298 100 1 0.651200 105.220663 80.802957 17.335554
299 100 2 -0.325600 103.404187 81.265093 16.191590
300 100 2 -0.325600 107.037140 80.340820 18.479517
301 101 1 0.651200 50.323874 13.422517 15.289806
302 101 2 -0.325600 48.193577 13.551607 15.806506
303 101 2 -0.325600 52.454171 13.293427 14.773106
304 102 1 0.651200 94.765295 61.996681 107.387020
305 102 2 -0.325600 96.918507 62.297135 107.695593
306 102 2 -0.325600 92.612084 61.696228 107.078448
307 103 1 0.651200 100.017258 19.491453 51.144120
308 103 2 -0.325600 101.488886 20.570525 49.922758
309 103 2 -0.325600 98.545629 18.412382 52.365481
310 104 1 0.651200 106.792840 72.473772 77.725863
311 104 2 -0.325600 108.009480 74.292139 77.913315
312 104 2 -0.325600 105.576201 70.655405 77.538411
313 105 1 0.651200 56.777583 99.333210 110.986940
314 105 2 -0.325600 58.593627 98.100020 111.042052
315 105 2 -0.325600 54.961539 100.566399 110.931829
316 106 1 0.651200 65.530271 71.981477 70.843837
317 106 2 -0.325600 66.410378 71.389362 72.766496
318 106 2 -0.325600 64.650164 72.573592 68.921177
319 107 1 0.651200 65.579478 109.756232 52.168378
320 107 2 -0.325600 67.529211 108.827392 51.771380
321 107 2 -0.325600 63.629745 110.685072 52.565376
322 108 1 0.651200 68.874471 57.245311 91.425088
323 108 2 -0.325600 70.540720 58.446687 90.649124
324 108 2 -0.325600 67.208221 56.043936 92.201052
325 109 1 0.651200 106.205721 98.721201 35.163344
326 109 2 -0.325600 106.951079 98.611556 33.100765
327 109 2 -0.325600 105.460363 98.830846 37.225922
328 110 1 0.651200 18.391758 28.880399 49.119080
329 110 2 -0.325600 19.206608 26.872085 49.471936
330 110 2 -0.325600 17.576908 30.888712 48.766223
331 111 1 0.651200 102.511236 16.536456 68.668372
332 111 2 -0.325600 103.866592 18.262760 68.736898
333 111 2 -0.325600 101.155881 14.810152 68.599846
334 112 1 0.651200 16.727065 46.070049 107.449671
335 112 2 -0.325600 17.601976 47.142140 105.744690
336 112 2 -0.325600 15.852154 44.997958 109.154653
337 113 1 0.651200 78.261293 52.847577 13.265678
338 113 2 -0.325600 78.596784 50.707777 13.626940
339 113 2 -0.325600 77.925801 54.987377 12.904416
340 114 1 0.651200 36.634536 33.936810 22.237071
341 114 2 -0.325600 36.588903 32.080299 23.408862
342 114 2 -0.325600 36.680169 35.793321 21.065280
343 115 1 0.651200 63.886640 103.607950 64.632984
344 115 2 -0.325600 65.314766 101.949680 64.452974
345 115 2 -0.325600 62.458514 105.266221 64.812994
346 116 1 0.651200 32.646814 63.710772 2.043407
347 116 2 -0.325600 34.832013 63.926255 2.060124
348 116 2 -0.325600 30.461614 63.495289 2.026689
349 117 1 0.651200 37.514839 105.322811 3.088875
350 117 2 -0.325600 36.350782 104.760796 4.863958
351 117 2 -0.325600 38.678897 105.884826 1.313792
352 118 1 0.651200 38.201406 28.161481 100.424243
353 118 2 -0.325600 36.902937 26.421670 100.754159
354 118 2 -0.325600 39.499875 29.901292 100.094326
355 119 1 0.651200 95.497266 41.751712 83.296286
356 119 2 -0.325600 93.505549 41.759857 84.220844
357 119 2 -0.325600 97.488983 41.743566 82.371728
358 120 1 0.651200 83.695996 88.748362 49.587833
359 120 2 -0.325600 84.519765 87.203738 50.913485
360 120 2 -0.325600 82.872227 90.292986 48.262182
361 121 1 0.651200 28.522281 92.712379 60.706009
362 121 2 -0.325600 29.449308 90.825915 61.341370
363 121 2 -0.325600 27.595255 94.598844 60.070648
364 122 1 0.651200 87.087113 61.945092 103.349481
365 122 2 -0.325600 86.729426 61.054367 105.324444
366 122 2 -0.325600 87.444800 62.835818 101.374518
367 123 1 0.651200 36.697517 56.324435 76.011401
368 123 2 -0.325600 35.130739 57.862885 76.025074
369 123 2 -0.325600 38.264296 54.785985 75.997729
370 124 1 0.651200 40.348559 65.014141 28.412025
371 124 2 -0.325600 41.638297 63.238942 28.495986
372 124 2 -0.325600 39.058820 66.789341 28.328064
373 125 1 0.651200 98.071026 89.710128 69.764909
374 125 2 -0.325600 98.271983 88.607071 67.876869
375 125 2 -0.325600 97.870070 90.813185 71.652948
376 126 1 0.651200 57.697378 5.473289 52.287655
377 126 2 -0.325600 55.537913 5.767623 52.019539
378 126 2 -0.325600 59.856844 5.178955 52.555772
379 127 1 0.651200 79.136202 37.855837 76.890258
380 127 2 -0.325600 80.022598 37.280333 78.815071
381 127 2 -0.325600 78.249805 38.431340 74.965444
382 128 1 0.651200 47.263365 50.376563 84.891286
383 128 2 -0.325600 45.912713 50.070907 83.187138
384 128 2 -0.325600 48.614017 50.682219 86.595435
385 129 1 0.651200 45.944785 97.613557 28.273398
386 129 2 -0.325600 46.921601 98.248519 26.412091
387 129 2 -0.325600 44.967968 96.978595 30.134704
388 130 1 0.651200 7.670618 45.729560 10.058066
389 130 2 -0.325600 8.503957 47.755292 10.212231
390 130 2 -0.325600 6.837279 43.703828 9.903901
391 131 1 0.651200 0.229435 64.359241 13.097766
392 131 2 -0.325600 0.458999 65.019689 11.016200
393 131 2 -0.325600 -0.000128 63.698794 15.179333
394 132 1 0.651200 66.431315 46.230256 100.724174
395 132 2 -0.325600 66.803011 48.374183 100.428833
396 132 2 -0.325600 66.059619 44.086328 101.019516
397 133 1 0.651200 13.227318 68.050561 102.042659
398 133 2 -0.325600 14.684590 67.192888 100.641743
399 133 2 -0.325600 11.770046 68.908234 103.443575
400 134 1 0.651200 68.709333 70.855090 60.374876
401 134 2 -0.325600 69.333542 69.596908 58.686933
402 134 2 -0.325600 68.085124 72.113273 62.062819
403 135 1 0.651200 96.116541 22.112288 108.035265
404 135 2 -0.325600 97.671906 21.437114 109.430539
405 135 2 -0.325600 94.561175 22.787461 106.639991
406 136 1 0.651200 24.535931 93.248575 88.566280
407 136 2 -0.325600 23.670163 95.266494 88.550200
408 136 2 -0.325600 25.401699 91.230656 88.582360
409 137 1 0.651200 76.372524 51.254810 49.220947
410 137 2 -0.325600 77.698270 50.649887 47.578305
411 137 2 -0.325600 75.046777 51.859733 50.863589
412 138 1 0.651200 107.789674 112.528349 13.407939
413 138 2 -0.325600 107.236720 110.447873 12.974731
414 138 2 -0.325600 108.342629 114.608826 13.841147
415 139 1 0.651200 85.702049 3.283810 30.540836
416 139 2 -0.325600 87.479082 2.225565 29.803217
417 139 2 -0.325600 83.925016 4.342055 31.278454
418 140 1 0.651200 45.366836 27.729344 9.852400
419 140 2 -0.325600 43.975224 26.852591 8.397570
420 140 2 -0.325600 46.758447 28.606098 11.307230
421 141 1 0.651200 33.784473 -0.001288 86.786549
422 141 2 -0.325600 32.441504 0.000963 88.523857
423 141 2 -0.325600 35.127443 -0.003539 85.049242
424 142 1 0.651200 85.940578 107.113328 95.238408
425 142 2 -0.325600 85.631620 105.116393 94.378986
426 142 2 -0.325600 86.249537 109.110262 96.097831
427 143 1 0.651200 103.169437 45.135694 49.369463
428 143 2 -0.325600 101.585777 44.045930 48.308216
429 143 2 -0.325600 104.753097 46.225459 50.430709
430 144 1 0.651200 35.213424 88.936042 35.793609
431 144 2 -0.325600 36.272576 87.593598 37.171235
432 144 2 -0.325600 34.154272 90.278486 34.415984
433 145 1 0.651200 34.017622 17.327698 27.155144
434 145 2 -0.325600 34.440598 19.417265 27.681081
435 145 2 -0.325600 33.594646 15.238130 26.629207
436 146 1 0.651200 37.524931 55.335938 13.879064
437 146 2 -0.325600 38.479805 53.803024 15.128144
438 146 2 -0.325600 36.570057 56.868852 12.629984
439 147 1 0.651200 10.091846 112.325319 97.700043
440 147 2 -0.325600 8.239569 112.333130 98.879373
441 147 2 -0.325600 11.944124 112.317509 96.520713
442 148 1 0.651200 78.655681 80.545594 96.217059
443 148 2 -0.325600 79.784805 82.428897 96.209286
444 148 2 -0.325600 77.526557 78.662292 96.224832
445 149 1 0.651200 99.625562 11.642961 36.747309
446 149 2 -0.325600 101.607551 12.588165 36.758256
447 149 2 -0.325600 97.643573 10.697757 36.736362
448 150 1 0.651200 93.600281 30.662084 80.896227
449 150 2 -0.325600 92.716323 31.707136 82.613287
450 150 2 -0.325600 94.484239 29.617032 79.179167
451 151 1 0.651200 7.383181 76.404462 87.111294
452 151 2 -0.325600 9.136510 77.319477 86.157147
453 151 2 -0.325600 5.629853 75.489447 88.065441
454 152 1 0.651200 24.209801 63.034312 25.512845
455 152 2 -0.325600 26.231919 62.178360 25.498774
456 152 2 -0.325600 22.187684 63.890264 25.526916
457 153 1 0.651200 103.407972 20.867868 105.547059
458 153 2 -0.325600 102.844025 20.805739 107.668359
459 153 2 -0.325600 103.971920 20.929997 103.425759
460 154 1 0.651200 70.813478 1.476850 11.377793
461 154 2 -0.325600 69.203300 -0.000107 11.596269
462 154 2 -0.325600 72.423656 2.953808 11.159317
463 155 1 0.651200 102.536097 20.538537 115.137492
464 155 2 -0.325600 102.679755 18.414345 115.675062
465 155 2 -0.325600 102.392439 22.662729 114.599921
466 156 1 0.651200 38.984646 10.579948 115.672929
467 156 2 -0.325600 41.109533 11.133721 115.672332
468 156 2 -0.325600 36.859759 10.026174 115.673526
469 157 1 0.651200 91.211127 89.078499 50.158729
470 157 2 -0.325600 89.478275 89.920863 49.105421
471 157 2 -0.325600 92.943978 88.236134 51.212036
472 158 1 0.651200 115.349792 42.897501 92.031252
473 158 2 -0.325600 115.026619 43.733294 90.026552
474 158 2 -0.325600 115.672966 42.061708 94.035951
475 159 1 0.651200 59.494070 105.237386 42.274706
476 159 2 -0.325600 61.298023 105.410504 41.034708
477 159 2 -0.325600 57.690118 105.064267 43.514704
478 160 1 0.651200 27.449851 34.191645 44.843875
479 160 2 -0.325600 27.196197 32.594898 46.329765
480 160 2 -0.325600 27.703506 35.788392 43.357986
481 161 1 0.651200 102.282022 103.085232 115.287664
482 161 2 -0.325600 100.096327 103.054938 115.078789
483 161 2 -0.325600 104.467718 103.115526 115.496539
484 162 1 0.651200 68.430181 72.258291 44.771723
485 162 2 -0.325600 70.496438 72.760829 44.224139
486 162 2 -0.325600 66.363924 71.755753 45.319307
487 163 1 0.651200 28.519540 53.687318 23.574094
488 163 2 -0.325600 30.115666 55.185915 23.405581
489 163 2 -0.325600 26.923413 52.188721 23.742606
490 164 1 0.651200 81.264100 64.981630 104.910107
491 164 2 -0.325600 81.526982 62.838931 105.312035
492 164 2 -0.325600 81.001219 67.124329 104.508179
493 165 1 0.651200 51.274903 89.482234 65.973642
494 165 2 -0.325600 49.457571 90.629372 65.522878
495 165 2 -0.325600 53.092235 88.335096 66.424406
496 166 1 0.651200 79.790178 17.661256 20.881167
497 166 2 -0.325600 79.762959 16.056654 22.379940
498 166 2 -0.325600 79.817397 19.265859 19.382394
499 167 1 0.651200 9.549018 65.889431 15.497003
500 167 2 -0.325600 8.254660 64.842137 14.065354
501 167 2 -0.325600 10.843376 66.936726 16.928653
502 168 1 0.651200 53.910828 50.085705 85.239630
503 168 2 -0.325600 54.153828 51.078605 87.183057
504 168 2 -0.325600 53.667827 49.092805 83.296203
505 169 1 0.651200 25.355996 67.127285 5.871784
506 169 2 -0.325600 26.026001 66.435746 3.898291
507 169 2 -0.325600 24.685991 67.818824 7.845278
508 170 1 0.651200 18.480784 63.245469 3.004416
509 170 2 -0.325600 20.281128 64.097465 3.928901
510 170 2 -0.325600 16.680440 62.393473 2.079930
511 171 1 0.651200 0.645144 103.161331 98.436563
512 171 2 -0.325600 0.000010 104.742799 97.056502
513 171 2 -0.325600 1.290279 101.579863 99.816624
514 172 1 0.651200 67.901263 23.798313 75.488841
515 172 2 -0.325600 69.156343 25.553514 75.896092
516 172 2 -0.325600 66.646183 22.043112 75.081591
517 173 1 0.651200 98.990526 24.324197 35.930850
518 173 2 -0.325600 100.292296 23.591637 37.540372
519 173 2 -0.325600 97.688756 25.056756 34.321328
520 174 1 0.651200 57.463859 18.324787 59.274091
521 174 2 -0.325600 57.457612 20.520630 59.267403
522 174 2 -0.325600 57.470105 16.128944 59.280778
523 175 1 0.651200 7.229422 75.053538 98.093105
524 175 2 -0.325600 6.896232 77.114851 98.772652
525 175 2 -0.325600 7.562612 72.992226 97.413558
526 176 1 0.651200 36.421611 108.250361 23.257805
527 176 2 -0.325600 36.667260 106.218579 24.053626
528 176 2 -0.325600 36.175963 110.282143 22.461985
529 177 1 0.651200 24.656249 57.253088 33.438707
530 177 2 -0.325600 26.494372 58.369436 32.994991
531 177 2 -0.325600 22.818127 56.136741 33.882424
532 178 1 0.651200 74.475471 50.879356 32.041201
533 178 2 -0.325600 74.157965 50.118284 34.076335
534 178 2 -0.325600 74.792978 51.640429 30.006067
535 179 1 0.651200 4.069257 10.327542 52.339957
536 179 2 -0.325600 5.727793 9.536544 51.137714
537 179 2 -0.325600 2.410720 11.118540 53.542200
538 180 1 0.651200 83.916304 101.568999 86.318985
539 180 2 -0.325600 84.493525 101.245911 88.412842
540 180 2 -0.325600 83.339083 101.892086 84.225127
541 181 1 0.651200 51.705574 2.330803 38.117036
542 181 2 -0.325600 49.759247 1.770136 38.965133
543 181 2 -0.325600 53.651902 2.891470 37.268938
544 182 1 0.651200 61.380890 25.400484 79.588957
545 182 2 -0.325600 59.680495 25.588418 80.965600
546 182 2 -0.325600 63.081285 25.212550 78.212313
547 183 1 0.651200 71.257894 48.500305 14.722811
548 183 2 -0.325600 69.285132 47.583328 15.021429
549 183 2 -0.325600 73.230656 49.417282 14.424194
550 184 1 0.651200 74.105271 20.859513 83.840085
551 184 2 -0.325600 74.137797 18.665610 83.926939
552 184 2 -0.325600 74.072746 23.053415 83.753231
553 185 1 0.651200 97.864295 86.527367 59.792004
554 185 2 -0.325600 99.606161 87.076986 61.010869
555 185 2 -0.325600 96.122428 85.977749 58.573140
556 186 1 0.651200 110.054697 12.613756 86.192931
557 186 2 -0.325600 110.317043 13.658502 88.106434
558 186 2 -0.325600 109.792352 11.569011 84.279429
559 187 1 0.651200 86.770010 68.822255 9.200463
560 187 2 -0.325600 86.602592 66.660932 8.850511
561 187 2 -0.325600 86.937428 70.983577 9.550416
562 188 1 0.651200 43.803538 96.072334 20.522185
563 188 2 -0.325600 42.966621 94.550267 21.865573
564 188 2 -0.325600 44.640456 97.594401 19.178797
565 189 1 0.651200 49.003155 115.601806 62.473084
566 189 2 -0.325600 50.536750 115.673035 60.903109
567 189 2 -0.325600 47.469560 115.530577 64.043059
568 190 1 0.651200 85.181369 86.971741 84.263920
569 190 2 -0.325600 86.415411 87.318383 86.046836
570 190 2 -0.325600 83.947327 86.625098 82.481004
571 191 1 0.651200 74.832017 43.080800 53.200898
572 191 2 -0.325600 73.625584 41.895436 51.800454
573 191 2 -0.325600 76.038450 44.266164 54.601341
574 192 1 0.651200 89.853779 25.908954 67.959837
575 192 2 -0.325600 89.986564 23.718304 68.032137
576 192 2 -0.325600 89.720994 28.099605 67.887536
577 193 1 0.651200 50.458456 112.789708 108.016604
578 193 2 -0.325600 50.597692 114.626427 106.821243
579 193 2 -0.325600 50.319219 110.952989 109.211964
580 194 1 0.651200 6.762967 88.641456 45.952836
581 194 2 -0.325600 4.947521 88.672315 47.187751
582 194 2 -0.325600 8.578412 88.610597 44.717921
583 195 1 0.651200 27.150014 60.355434 58.138145
584 195 2 -0.325600 26.484082 58.633118 56.949881
585 195 2 -0.325600 27.815946 62.077750 59.326409
586 196 1 0.651200 22.472715 79.797105 11.165408
587 196 2 -0.325600 20.742278 79.611845 9.826350
588 196 2 -0.325600 24.203152 79.982366 12.504466
589 197 1 0.651200 71.092216 27.403098 85.554784
590 197 2 -0.325600 71.643276 28.111694 83.550780
591 197 2 -0.325600 70.541155 26.694503 87.558789
592 198 1 0.651200 62.989546 19.256748 83.254597
593 198 2 -0.325600 61.795772 20.376325 81.790609
594 198 2 -0.325600 64.183320 18.137171 84.718585
595 199 1 0.651200 85.482773 103.427478 58.814131
596 199 2 -0.325600 87.484045 104.330063 58.768735
597 199 2 -0.325600 83.481502 102.524892 58.859527
598 200 1 0.651200 99.906648 110.425237 104.390155
599 200 2 -0.325600 101.306691 112.085922 104.067954
600 200 2 -0.325600 98.506605 108.764551 104.712357
601 201 1 0.651200 91.091918 46.054000 17.065203
602 201 2 -0.325600 92.831892 47.377417 17.272250
603 201 2 -0.325600 89.351944 44.730583 16.858155
604 202 1 0.651200 34.262743 59.540610 7.056350