LAMMPS Description

5184  atoms
 3456  bonds
 1728  angles

 2  atom types
 1  bond types
 1  angle types


0.0 91.81 xlo xhi
0.0 91.81 ylo yhi
0.0 91.81 zlo zhi

Masses

  1 12.0107
  2 15.9994

Bond Coeffs

 1    2.196    0.45106005 -0.67297933 0.5857145

Angle Coeffs

  1    0.0861  180.000000

Atoms

1 1 1 0.651200 30.232364 88.662119 55.028653
2 1 2 -0.325600 31.240820 90.030083 56.419157
3 1 2 -0.325600 29.223908 87.294155 53.638149
4 2 1 0.651200 71.234223 63.688872 54.599221
5 2 2 -0.325600 71.726009 62.035950 55.958561
6 2 2 -0.325600 70.742436 65.341794 53.239880
7 3 1 0.651200 14.427687 63.572168 70.100263
8 3 2 -0.325600 13.764546 61.823097 71.250395
9 3 2 -0.325600 15.090829 65.321239 68.950131
10 4 1 0.651200 74.924965 35.352935 40.099433
11 4 2 -0.325600 74.219755 36.696102 41.687007
12 4 2 -0.325600 75.630175 34.009768 38.511859
13 5 1 0.651200 23.513166 35.869840 91.758941
14 5 2 -0.325600 24.876378 37.590310 91.817651
15 5 2 -0.325600 22.149954 34.149370 91.700231
16 6 1 0.651200 83.917429 51.356094 77.076251
17 6 2 -0.325600 85.973101 50.985516 77.753522
18 6 2 -0.325600 81.861757 51.726672 76.398981
19 7 1 0.651200 57.886811 15.303805 25.082255
20 7 2 -0.325600 57.578713 17.205810 24.029039
21 7 2 -0.325600 58.194908 13.401800 26.135471
22 8 1 0.651200 31.504790 85.800164 35.603670
23 8 2 -0.325600 30.591214 83.978737 36.421957
24 8 2 -0.325600 32.418367 87.621591 34.785384
25 9 1 0.651200 33.939025 22.780982 88.229307
26 9 2 -0.325600 34.374681 20.632217 88.351063
27 9 2 -0.325600 33.503368 24.929746 88.107552
28 10 1 0.651200 26.441897 79.865880 90.456485
29 10 2 -0.325600 28.157554 79.650645 89.102969
30 10 2 -0.325600 24.726241 80.081115 91.810001
31 11 1 0.651200 26.368642 52.831127 78.454857
32 11 2 -0.325600 28.462608 53.012478 79.090646
33 11 2 -0.325600 24.274675 52.649776 77.819068
34 12 1 0.651200 84.973439 87.601540 78.487723
35 12 2 -0.325600 83.265588 86.246131 78.227103
36 12 2 -0.325600 86.681289 88.956949 78.748342
37 13 1 0.651200 16.412792 37.356984 69.758667
38 13 2 -0.325600 17.897835 36.967900 68.188612
39 13 2 -0.325600 14.927750 37.746067 71.328722
40 14 1 0.651200 84.433409 71.364177 53.164717
41 14 2 -0.325600 86.112395 69.948970 53.163105
42 14 2 -0.325600 82.754423 72.779385 53.166328
43 15 1 0.651200 14.591836 50.260121 86.599459
44 15 2 -0.325600 15.258989 48.847968 85.055911
45 15 2 -0.325600 13.924684 51.672274 88.143007
46 16 1 0.651200 47.666286 45.460859 28.971929
47 16 2 -0.325600 45.806667 44.590985 29.750996
48 16 2 -0.325600 49.525905 46.330733 28.192862
49 17 1 0.651200 3.253321 80.727068 87.551647
50 17 2 -0.325600 4.925856 82.105052 87.906043
51 17 2 -0.325600 1.580787 79.349084 87.197252
52 18 1 0.651200 87.774606 45.216923 46.558693
53 18 2 -0.325600 89.903936 45.753239 46.569898
54 18 2 -0.325600 85.645275 44.680606 46.547488
55 19 1 0.651200 3.857327 37.604261 29.227723
56 19 2 -0.325600 3.818460 36.091584 27.636463
57 19 2 -0.325600 3.896194 39.116937 30.818983
58 20 1 0.651200 36.999447 35.879402 38.264585
59 20 2 -0.325600 38.207770 37.067961 36.868485
60 20 2 -0.325600 35.791125 34.690843 39.660684
61 21 1 0.651200 67.361096 5.587510 63.021501
62 21 2 -0.325600 68.033081 7.654689 62.710029
63 21 2 -0.325600 66.689111 3.520330 63.332974
64 22 1 0.651200 15.613433 85.846375 21.888598
65 22 2 -0.325600 14.776093 87.868225 22.069682
66 22 2 -0.325600 16.450773 83.824524 21.707514
67 23 1 0.651200 35.025979 21.325792 9.824865
68 23 2 -0.325600 34.706037 21.755090 11.954454
69 23 2 -0.325600 35.345922 20.896494 7.695275
70 24 1 0.651200 53.868223 44.551753 42.430793
71 24 2 -0.325600 53.421162 46.696401 42.580570
72 24 2 -0.325600 54.315284 42.407106 42.281017
73 25 1 0.651200 75.564633 66.007836 72.215370
74 25 2 -0.325600 75.779749 67.910083 71.139735
75 25 2 -0.325600 75.349516 64.105589 73.291005
76 26 1 0.651200 10.350266 33.390545 38.577798
77 26 2 -0.325600 9.846259 34.659575 40.297492
78 26 2 -0.325600 10.854273 32.121515 36.858103
79 27 1 0.651200 17.960050 74.759384 32.108901
80 27 2 -0.325600 16.006612 75.575894 32.691308
81 27 2 -0.325600 19.913489 73.942874 31.526494
82 28 1 0.651200 56.621595 85.186525 78.393140
83 28 2 -0.325600 58.619282 85.843161 77.760775
84 28 2 -0.325600 54.623908 84.529890 79.025505
85 29 1 0.651200 26.596863 90.570460 14.795803
86 29 2 -0.325600 27.009475 91.809998 16.560770
87 29 2 -0.325600 26.184251 89.330922 13.030836
88 30 1 0.651200 33.799640 30.090848 91.810023
89 30 2 -0.325600 35.590712 31.361231 91.810023
90 30 2 -0.325600 32.008568 28.820466 91.810023
91 31 1 0.651200 80.376051 36.386068 17.387488
92 31 2 -0.325600 82.550297 36.382570 17.694821
93 31 2 -0.325600 78.201805 36.389565 17.080155
94 32 1 0.651200 56.381819 77.804670 5.254138
95 32 2 -0.325600 55.493754 76.616897 3.634772
96 32 2 -0.325600 57.269885 78.992442 6.873503
97 33 1 0.651200 20.201658 91.810147 8.036343
98 33 2 -0.325600 18.566633 91.810147 6.570566
99 33 2 -0.325600 21.836683 91.810147 9.502121
100 34 1 0.651200 27.206919 90.466523 65.910242
101 34 2 -0.325600 28.862072 91.906967 65.824231
102 34 2 -0.325600 25.551765 89.026079 65.996253
103 35 1 0.651200 28.463019 0.465873 73.123326
104 35 2 -0.325600 27.713692 0.000000 71.112535
105 35 2 -0.325600 29.212347 0.931746 75.134117
106 36 1 0.651200 83.984305 25.818846 67.276564
107 36 2 -0.325600 83.231404 27.828876 67.739953
108 36 2 -0.325600 84.737206 23.808816 66.813174
109 37 1 0.651200 35.594248 33.013759 73.002972
110 37 2 -0.325600 36.154569 35.115406 72.701428
111 37 2 -0.325600 35.033927 30.912112 73.304516
112 38 1 0.651200 17.467033 20.693001 37.112181
113 38 2 -0.325600 15.534349 19.651011 37.083880
114 38 2 -0.325600 19.399716 21.734991 37.140482
115 39 1 0.651200 45.354584 15.618694 60.436819
116 39 2 -0.325600 45.016653 17.748743 60.849737
117 39 2 -0.325600 45.692514 13.488644 60.023900
118 40 1 0.651200 61.901531 62.326856 9.313952
119 40 2 -0.325600 63.256120 61.446845 10.801393
120 40 2 -0.325600 60.546941 63.206867 7.826512
121 41 1 0.651200 81.176989 62.967019 30.336062
122 41 2 -0.325600 79.231407 62.997680 31.353696
123 41 2 -0.325600 83.122572 62.936359 29.318428
124 42 1 0.651200 36.260076 28.131292 61.683591
125 42 2 -0.325600 34.478347 29.403986 61.517754
126 42 2 -0.325600 38.041806 26.858599 61.849428
127 43 1 0.651200 80.675347 21.769692 1.222333
128 43 2 -0.325600 78.866131 22.598820 2.150284
129 43 2 -0.325600 82.484564 20.940563 0.294382
130 44 1 0.651200 68.904747 51.201551 86.192162
131 44 2 -0.325600 67.407319 52.801396 86.333631
132 44 2 -0.325600 70.402176 49.601706 86.050692
133 45 1 0.651200 71.558187 53.416196 62.064676
134 45 2 -0.325600 69.650886 53.335349 60.979561
135 45 2 -0.325600 73.465489 53.497043 63.149791
136 46 1 0.651200 72.951480 65.806925 66.339866
137 46 2 -0.325600 72.033941 64.330529 67.681576
138 46 2 -0.325600 73.869019 67.283321 64.998155
139 47 1 0.651200 43.144838 32.348115 56.222342
140 47 2 -0.325600 41.739807 32.387318 57.909399
141 47 2 -0.325600 44.549869 32.308913 54.535285
142 48 1 0.651200 16.407058 74.550262 58.992127
143 48 2 -0.325600 17.081788 72.710576 58.001113
144 48 2 -0.325600 15.732329 76.389947 59.983142
145 49 1 0.651200 26.308153 84.192817 79.636897
146 49 2 -0.325600 26.577876 84.231775 77.458012
147 49 2 -0.325600 26.038430 84.153860 81.815782
148 50 1 0.651200 74.476178 73.891180 39.893847
149 50 2 -0.325600 73.174163 72.123481 39.936354
150 50 2 -0.325600 75.778194 75.658879 39.851340
151 51 1 0.651200 52.516546 14.165119 91.810022
152 51 2 -0.325600 54.299015 15.447544 91.810022
153 51 2 -0.325600 50.734077 12.882693 91.810022
154 52 1 0.651200 26.120180 39.106582 61.879027
155 52 2 -0.325600 27.672097 38.033851 60.755367
156 52 2 -0.325600 24.568264 40.179314 63.002688
157 53 1 0.651200 53.462797 84.014977 4.615954
158 53 2 -0.325600 54.226729 86.073381 4.581428
159 53 2 -0.325600 52.698865 81.956574 4.650481
160 54 1 0.651200 21.173343 71.632569 12.787988
161 54 2 -0.325600 19.480271 72.507199 11.696961
162 54 2 -0.325600 22.866414 70.757938 13.879016
163 55 1 0.651200 22.928440 11.165360 45.010615
164 55 2 -0.325600 21.230923 11.639686 46.320295
165 55 2 -0.325600 24.625956 10.691034 43.700935
166 56 1 0.651200 72.741664 78.446450 43.492446
167 56 2 -0.325600 73.538235 80.221936 42.475129
168 56 2 -0.325600 71.945094 76.670964 44.509764
169 57 1 0.651200 73.405563 6.012233 30.045937
170 57 2 -0.325600 71.577703 5.069290 29.276786
171 57 2 -0.325600 75.233424 6.955177 30.815088
172 58 1 0.651200 36.421579 51.256616 64.200253
173 58 2 -0.325600 35.531139 51.490393 62.206694
174 58 2 -0.325600 37.312018 51.022840 66.193812
175 59 1 0.651200 31.352859 48.849464 76.953715
176 59 2 -0.325600 33.283602 49.893365 76.888058
177 59 2 -0.325600 29.422116 47.805563 77.019372
178 60 1 0.651200 37.644726 48.442514 4.272943
179 60 2 -0.325600 37.761955 46.358681 3.590514
180 60 2 -0.325600 37.527497 50.526346 4.955372
181 61 1 0.651200 50.582094 17.885684 77.671965
182 61 2 -0.325600 50.436832 19.377256 79.276933
183 61 2 -0.325600 50.727357 16.394112 76.066997
184 62 1 0.651200 83.237331 29.051062 84.717973
185 62 2 -0.325600 82.132676 30.726689 83.827007
186 62 2 -0.325600 84.341986 27.375435 85.608940
187 63 1 0.651200 82.696345 6.936828 87.877622
188 63 2 -0.325600 80.900268 5.823075 87.281408
189 63 2 -0.325600 84.492422 8.050580 88.473837
190 64 1 0.651200 41.297478 56.468032 1.089886
191 64 2 -0.325600 39.212878 56.757415 1.716391
192 64 2 -0.325600 43.382079 56.178648 0.463381
193 65 1 0.651200 35.526935 12.766731 76.965304
194 65 2 -0.325600 36.269160 10.727590 77.301187
195 65 2 -0.325600 34.784711 14.805871 76.629420
196 66 1 0.651200 42.099120 49.922508 8.658893
197 66 2 -0.325600 42.249261 47.753893 8.969340
198 66 2 -0.325600 41.948979 52.091123 8.348446
199 67 1 0.651200 40.038909 15.363041 65.153106
200 67 2 -0.325600 41.207584 14.119777 63.770969
201 67 2 -0.325600 38.870234 16.606304 66.535244
202 68 1 0.651200 32.817819 59.705146 11.006043
203 68 2 -0.325600 31.227087 60.031541 9.527919
204 68 2 -0.325600 34.408550 59.378750 12.484167
205 69 1 0.651200 64.040963 67.917964 63.071068
206 69 2 -0.325600 62.800169 66.582108 61.847251
207 69 2 -0.325600 65.281757 69.253821 64.294884
208 70 1 0.651200 58.233750 91.810052 25.919910
209 70 2 -0.325600 57.779870 91.810062 23.771468
210 70 2 -0.325600 58.687630 91.810042 28.068352
211 71 1 0.651200 14.463199 67.078562 76.688175
212 71 2 -0.325600 14.372262 65.206856 75.543510
213 71 2 -0.325600 14.554137 68.950268 77.832840
214 72 1 0.651200 44.318374 6.957381 67.181287
215 72 2 -0.325600 46.494095 7.032421 66.894202
216 72 2 -0.325600 42.142653 6.882341 67.468372
217 73 1 0.651200 7.173198 29.639154 74.611319
218 73 2 -0.325600 9.154491 30.482214 75.042057
219 73 2 -0.325600 5.191904 28.796093 74.180581
220 74 1 0.651200 71.007946 35.341372 31.503470
221 74 2 -0.325600 69.277057 35.728609 30.208911
222 74 2 -0.325600 72.738834 34.954135 32.798029
223 75 1 0.651200 79.859120 80.196215 27.774140
224 75 2 -0.325600 78.605388 81.997977 27.713986
225 75 2 -0.325600 81.112852 78.394452 27.834295
226 76 1 0.651200 70.127160 75.518517 35.258490
227 76 2 -0.325600 70.652469 73.386870 35.214454
228 76 2 -0.325600 69.601851 77.650165 35.302526
229 77 1 0.651200 25.616071 87.897015 73.471778
230 77 2 -0.325600 27.403096 87.627594 72.224475
231 77 2 -0.325600 23.829045 88.166436 74.719080
232 78 1 0.651200 63.469351 76.067466 16.299409
233 78 2 -0.325600 65.446496 75.156331 16.012112
234 78 2 -0.325600 61.492206 76.978602 16.586706
235 79 1 0.651200 88.722449 11.598932 90.688268
236 79 2 -0.325600 90.555573 11.148173 89.566536
237 79 2 -0.325600 86.889325 12.049692 91.810000
238 80 1 0.651200 44.860931 46.606390 36.450067
239 80 2 -0.325600 43.852859 44.768107 37.102996
240 80 2 -0.325600 45.869003 48.444673 35.797138
241 81 1 0.651200 8.937188 47.158294 70.389632
242 81 2 -0.325600 9.702254 46.387163 68.481272
243 81 2 -0.325600 8.172122 47.929425 72.297993
244 82 1 0.651200 56.903583 54.301481 55.059810
245 82 2 -0.325600 56.385886 55.612971 56.743198
246 82 2 -0.325600 57.421280 52.989991 53.376422
247 83 1 0.651200 74.379515 74.533929 0.562176
248 83 2 -0.325600 75.242769 72.594712 -0.000000
249 83 2 -0.325600 73.516261 76.473145 1.124352
250 84 1 0.651200 9.498037 51.442149 44.574913
251 84 2 -0.325600 11.679652 51.688014 44.618671
252 84 2 -0.325600 7.316421 51.196284 44.531155
253 85 1 0.651200 37.510055 31.533262 85.905999
254 85 2 -0.325600 35.759340 30.257131 85.547815
255 85 2 -0.325600 39.260770 32.809393 86.264183
256 86 1 0.651200 77.434038 -0.000143 89.651689
257 86 2 -0.325600 78.078900 -0.000148 87.552651
258 86 2 -0.325600 76.789177 -0.000138 91.750728
259 87 1 0.651200 25.263709 57.148225 11.174345
260 87 2 -0.325600 26.991894 55.832232 11.495821
261 87 2 -0.325600 23.535524 58.464219 10.852869
262 88 1 0.651200 28.282467 0.261916 42.212876
263 88 2 -0.325600 28.757085 0.596584 44.330550
264 88 2 -0.325600 27.807849 -0.072752 40.095201
265 89 1 0.651200 68.586626 17.370364 76.413068
266 89 2 -0.325600 68.254926 19.153825 77.650424
267 89 2 -0.325600 68.918327 15.586902 75.175713
268 90 1 0.651200 27.573719 19.084150 23.210724
269 90 2 -0.325600 28.295277 19.751802 21.247206
270 90 2 -0.325600 26.852161 18.416498 25.174243
271 91 1 0.651200 80.516427 1.983620 18.407494
272 91 2 -0.325600 81.451356 -0.000702 18.508406
273 91 2 -0.325600 79.581498 3.967942 18.306582
274 92 1 0.651200 66.399890 76.632457 84.532978
275 92 2 -0.325600 68.511360 76.553937 85.130758
276 92 2 -0.325600 64.288421 76.710977 83.935198
277 93 1 0.651200 48.392107 5.834621 6.356990
278 93 2 -0.325600 50.168555 6.870388 7.127202
279 93 2 -0.325600 46.615658 4.798854 5.586777
280 94 1 0.651200 13.311944 44.849816 73.270723
281 94 2 -0.325600 13.165698 42.672891 73.022895
282 94 2 -0.325600 13.458190 47.026741 73.518551
283 95 1 0.651200 58.392218 32.092651 49.183130
284 95 2 -0.325600 60.262492 32.302174 48.051766
285 95 2 -0.325600 56.521944 31.883127 50.314494
286 96 1 0.651200 52.432588 88.043922 22.476084
287 96 2 -0.325600 50.519957 88.559404 21.528491
288 96 2 -0.325600 54.345219 87.528441 23.423676
289 97 1 0.651200 79.225118 67.610764 84.732389
290 97 2 -0.325600 79.959645 67.852275 86.787615
291 97 2 -0.325600 78.490591 67.369252 82.677164
292 98 1 0.651200 51.777570 60.538369 78.495490
293 98 2 -0.325600 52.112991 58.375945 78.677764
294 98 2 -0.325600 51.442149 62.700793 78.313216
295 99 1 0.651200 62.996441 84.245511 61.761282
296 99 2 -0.325600 64.085284 86.083228 62.270225
297 99 2 -0.325600 61.907598 82.407793 61.252338
298 100 1 0.651200 62.959855 39.288693 81.622446
299 100 2 -0.325600 62.048634 37.302797 81.404035
300 100 2 -0.325600 63.871075 41.274589 81.840858
301 101 1 0.651200 84.940494 35.711116 90.352491
302 101 2 -0.325600 85.827261 34.328684 88.894980
303 101 2 -0.325600 84.053727 37.093547 91.810002
304 102 1 0.651200 37.888119 43.562884 79.589819
305 102 2 -0.325600 38.372288 42.953551 81.643135
306 102 2 -0.325600 37.403950 44.172216 77.536504
307 103 1 0.651200 16.967057 40.393932 61.213557
308 103 2 -0.325600 19.162598 40.359388 61.198749
309 103 2 -0.325600 14.771517 40.428475 61.228364
310 104 1 0.651200 61.093197 21.973125 45.355334
311 104 2 -0.325600 59.348181 20.682642 45.021597
312 104 2 -0.325600 62.838213 23.263609 45.689072
313 105 1 0.651200 26.284052 15.395259 36.856208
314 105 2 -0.325600 27.347420 15.623165 38.763855
315 105 2 -0.325600 25.220684 15.167354 34.948561
316 106 1 0.651200 69.789496 20.605358 6.664985
317 106 2 -0.325600 68.692986 18.900234 5.821168
318 106 2 -0.325600 70.886006 22.310482 7.508802
319 107 1 0.651200 31.655210 78.406107 16.745328
320 107 2 -0.325600 33.527694 79.130500 15.856021
321 107 2 -0.325600 29.782725 77.681713 17.634634
322 108 1 0.651200 36.952551 86.551439 21.831560
323 108 2 -0.325600 37.870909 84.694827 21.102574
324 108 2 -0.325600 36.034193 88.408051 22.560545
325 109 1 0.651200 17.582484 2.538497 62.117769
326 109 2 -0.325600 17.435517 4.676401 61.638630
327 109 2 -0.325600 17.729451 0.400592 62.596908
328 110 1 0.651200 5.773698 85.589864 7.298813
329 110 2 -0.325600 7.144977 87.027792 6.364058
330 110 2 -0.325600 4.402419 84.151935 8.233568
331 111 1 0.651200 74.186254 75.060494 78.867361
332 111 2 -0.325600 71.995399 75.198996 78.814593
333 111 2 -0.325600 76.377108 74.921992 78.920129
334 112 1 0.651200 5.249652 90.262293 11.270682
335 112 2 -0.325600 3.195072 89.579172 10.904813
336 112 2 -0.325600 7.304231 90.945413 11.636551
337 113 1 0.651200 66.327832 75.262114 64.178931
338 113 2 -0.325600 64.723400 76.478030 65.055946
339 113 2 -0.325600 67.932263 74.046197 63.301915
340 114 1 0.651200 26.244162 65.316767 76.716075
341 114 2 -0.325600 27.046366 65.382142 74.673037
342 114 2 -0.325600 25.441959 65.251392 78.759113
343 115 1 0.651200 34.512371 30.966813 46.734423
344 115 2 -0.325600 35.191227 32.957618 46.103818
345 115 2 -0.325600 33.833514 28.976009 47.365027
346 116 1 0.651200 21.649428 90.018718 49.816714
347 116 2 -0.325600 23.775382 90.368354 49.392586
348 116 2 -0.325600 19.523474 89.669081 50.240843
349 117 1 0.651200 12.242768 25.140801 80.319430
350 117 2 -0.325600 12.568469 24.157616 78.383177
351 117 2 -0.325600 11.917067 26.123986 82.255683
352 118 1 0.651200 83.597906 41.981919 20.757877
353 118 2 -0.325600 81.967356 41.847920 22.222514
354 118 2 -0.325600 85.228456 42.115918 19.293240
355 119 1 0.651200 39.747753 22.554959 55.802731
356 119 2 -0.325600 38.143035 21.056357 55.773029
357 119 2 -0.325600 41.352472 24.053560 55.832433
358 120 1 0.651200 88.536618 34.666147 67.750251
359 120 2 -0.325600 88.923237 33.179495 66.181112
360 120 2 -0.325600 88.149999 36.152800 69.319391
361 121 1 0.651200 54.752025 80.989319 42.079937
362 121 2 -0.325600 56.609249 81.514165 41.032529
363 121 2 -0.325600 52.894801 80.464472 43.127346
364 122 1 0.651200 50.151323 25.663291 19.924655
365 122 2 -0.325600 48.865088 25.346534 18.173348
366 122 2 -0.325600 51.437557 25.980048 21.675961
367 123 1 0.651200 18.006602 57.852031 69.079395
368 123 2 -0.325600 17.320267 56.051108 68.027050
369 123 2 -0.325600 18.692938 59.652954 70.131741
370 124 1 0.651200 60.653464 8.518063 67.496217
371 124 2 -0.325600 62.689863 9.301725 67.249721
372 124 2 -0.325600 58.617064 7.734400 67.742714
373 125 1 0.651200 5.506462 66.396894 73.493731
374 125 2 -0.325600 4.277916 67.690611 72.213582
375 125 2 -0.325600 6.735009 65.103177 74.773879
376 126 1 0.651200 34.952980 79.205974 9.258316
377 126 2 -0.325600 33.732554 77.850837 8.035216
378 126 2 -0.325600 36.173406 80.561111 10.481416
379 127 1 0.651200 71.341540 11.699875 60.707893
380 127 2 -0.325600 71.021516 12.559387 62.703046
381 127 2 -0.325600 71.661564 10.840363 58.712741
382 128 1 0.651200 72.980077 36.472048 88.625467
383 128 2 -0.325600 73.357484 37.638225 86.803543
384 128 2 -0.325600 72.602671 35.305872 90.447391
385 129 1 0.651200 54.001976 35.349282 67.809684
386 129 2 -0.325600 53.573595 37.433546 67.267334
387 129 2 -0.325600 54.430357 33.265018 68.352035
388 130 1 0.651200 20.502653 69.129200 73.190180
389 130 2 -0.325600 19.266906 67.529318 74.047569
390 130 2 -0.325600 21.738401 70.729082 72.332792
391 131 1 0.651200 73.074751 35.553892 55.791794
392 131 2 -0.325600 75.169928 35.116497 55.301150
393 131 2 -0.325600 70.979575 35.991286 56.282439
394 132 1 0.651200 55.969484 4.854069 57.390470
395 132 2 -0.325600 57.706297 5.850355 56.488967
396 132 2 -0.325600 54.232671 3.857784 58.291972
397 133 1 0.651200 71.220187 74.934625 49.679422
398 133 2 -0.325600 69.165464 74.880026 48.906802
399 133 2 -0.325600 73.274911 74.989225 50.452042
400 134 1 0.651200 81.384103 39.600747 70.317202
401 134 2 -0.325600 79.341627 40.210469 70.844782
402 134 2 -0.325600 83.426579 38.991025 69.789622
403 135 1 0.651200 78.292583 53.217662 33.271001
404 135 2 -0.325600 79.699645 54.885193 33.518645
405 135 2 -0.325600 76.885521 51.550132 33.023357
406 136 1 0.651200 31.364801 31.418163 52.663910
407 136 2 -0.325600 32.234768 33.179677 53.644744
408 136 2 -0.325600 30.494834 29.656649 51.683076
409 137 1 0.651200 51.970869 48.104417 75.018919
410 137 2 -0.325600 52.619087 47.243113 73.105864
411 137 2 -0.325600 51.322650 48.965720 76.931974
412 138 1 0.651200 43.495716 63.992830 62.693508
413 138 2 -0.325600 45.647181 64.426633 62.762976
414 138 2 -0.325600 41.344252 63.559028 62.624040
415 139 1 0.651200 48.905282 17.357418 52.825571
416 139 2 -0.325600 49.302285 15.423345 53.786591
417 139 2 -0.325600 48.508280 19.291491 51.864550
418 140 1 0.651200 20.158725 10.189199 12.153345
419 140 2 -0.325600 18.010584 10.291479 11.709680
420 140 2 -0.325600 22.306866 10.086919 12.597010
421 141 1 0.651200 61.783172 36.260697 2.516741
422 141 2 -0.325600 62.538116 35.547898 4.451628
423 141 2 -0.325600 61.028229 36.973496 0.581854
424 142 1 0.651200 64.077816 37.107290 31.628238
425 142 2 -0.325600 63.543573 36.013507 29.800662
426 142 2 -0.325600 64.612060 38.201074 33.455813
427 143 1 0.651200 44.631137 59.684427 31.641696
428 143 2 -0.325600 44.981514 57.517661 31.577106
429 143 2 -0.325600 44.280760 61.851192 31.706287
430 144 1 0.651200 35.861572 61.672727 85.252904
431 144 2 -0.325600 35.915981 60.445428 87.072955
432 144 2 -0.325600 35.807162 62.900025 83.432852
433 145 1 0.651200 13.846392 55.349454 73.616048
434 145 2 -0.325600 12.527296 53.597793 73.499938
435 145 2 -0.325600 15.165488 57.101114 73.732159
436 146 1 0.651200 68.130368 70.824698 68.969141
437 146 2 -0.325600 69.239352 68.929818 68.931840
438 146 2 -0.325600 67.021384 72.719579 69.006443
439 147 1 0.651200 22.903447 79.611632 47.243697
440 147 2 -0.325600 24.791648 78.959231 46.332173
441 147 2 -0.325600 21.015245 80.264032 48.155222
442 148 1 0.651200 21.770057 74.963471 76.896560
443 148 2 -0.325600 19.786263 74.022058 76.907151
444 148 2 -0.325600 23.753852 75.904884 76.885970
445 149 1 0.651200 8.502098 83.184559 71.586693
446 149 2 -0.325600 8.229233 82.108974 73.481547
447 149 2 -0.325600 8.774964 84.260144 69.691839
448 150 1 0.651200 15.400666 72.277068 70.202984
449 150 2 -0.325600 15.178590 70.342750 71.218319
450 150 2 -0.325600 15.622742 74.211387 69.187650
451 151 1 0.651200 37.677595 24.102033 27.945208
452 151 2 -0.325600 38.665634 23.383123 29.769696
453 151 2 -0.325600 36.689556 24.820942 26.120719
454 152 1 0.651200 56.321381 88.435600 73.045548
455 152 2 -0.325600 54.327744 89.181655 73.584640
456 152 2 -0.325600 58.315019 87.689544 72.506456
457 153 1 0.651200 19.486234 28.847990 87.565196
458 153 2 -0.325600 20.973538 30.458044 87.697347
459 153 2 -0.325600 17.998930 27.237937 87.433044
460 154 1 0.651200 9.922280 11.576170 56.136360
461 154 2 -0.325600 12.116642 11.519234 56.078528
462 154 2 -0.325600 7.727918 11.633107 56.194193
463 155 1 0.651200 45.252789 41.436353 57.599658
464 155 2 -0.325600 46.917425 41.300242 56.174081
465 155 2 -0.325600 43.588153 41.572464 59.025235
466 156 1 0.651200 14.361279 68.372352 85.154687
467 156 2 -0.325600 16.290687 69.046749 85.957424
468 156 2 -0.325600 12.431872 67.697956 84.351951
469 157 1 0.651200 60.886122 47.423409 15.585918
470 157 2 -0.325600 59.208138 48.821773 15.360621
471 157 2 -0.325600 62.564105 46.025044 15.811214
472 158 1 0.651200 71.410147 21.738031 83.778522
473 158 2 -0.325600 70.176623 21.866475 85.590629
474 158 2 -0.325600 72.643672 21.609586 81.966416
475 159 1 0.651200 30.187612 70.209053 81.529470
476 159 2 -0.325600 29.092894 72.110976 81.451425
477 159 2 -0.325600 31.282330 68.307130 81.607515
478 160 1 0.651200 25.035756 83.390393 62.299399
479 160 2 -0.325600 23.457669 81.878955 62.082591
480 160 2 -0.325600 26.613844 84.901830 62.516207
481 161 1 0.651200 15.548364 6.129311 5.120802
482 161 2 -0.325600 17.632125 6.675416 4.694754
483 161 2 -0.325600 13.464602 5.583205 5.546851
484 162 1 0.651200 24.920301 48.025705 1.300181
485 162 2 -0.325600 22.803829 47.444033 1.363517
486 162 2 -0.325600 27.036774 48.607378 1.236845
487 163 1 0.651200 19.936855 77.931572 70.777939
488 163 2 -0.325600 20.172871 75.967007 71.730089
489 163 2 -0.325600 19.700839 79.896138 69.825789
490 164 1 0.651200 70.253756 67.487667 31.010916
491 164 2 -0.325600 71.206180 66.426724 29.340857
492 164 2 -0.325600 69.301331 68.548611 32.680975
493 165 1 0.651200 85.837077 23.637289 22.832576
494 165 2 -0.325600 83.854372 24.566193 22.665768
495 165 2 -0.325600 87.819783 22.708384 22.999385
496 166 1 0.651200 30.641311 26.162632 55.971300
497 166 2 -0.325600 28.485956 26.485179 55.702567
498 166 2 -0.325600 32.796666 25.840085 56.240034
499 167 1 0.651200 51.997605 16.251776 26.857261
500 167 2 -0.325600 52.734825 14.483867 27.930952
501 167 2 -0.325600 51.260384 18.019685 25.783569
502 168 1 0.651200 82.545238 26.164490 73.273563
503 168 2 -0.325600 84.550834 25.745621 74.063463
504 168 2 -0.325600 80.539642 26.583360 72.483663
505 169 1 0.651200 6.949081 40.549234 42.964780
506 169 2 -0.325600 6.626880 41.381551 44.971081
507 169 2 -0.325600 7.271282 39.716917 40.958478
508 170 1 0.651200 43.054089 43.663455 50.028712
509 170 2 -0.325600 43.339334 43.690622 52.205799
510 170 2 -0.325600 42.768844 43.636289 47.851625
511 171 1 0.651200 37.228151 71.721027 27.019529
512 171 2 -0.325600 37.142195 72.781153 25.098448
513 171 2 -0.325600 37.314107 70.660902 28.940611
514 172 1 0.651200 83.511914 89.861316 49.085061
515 172 2 -0.325600 82.522975 87.912539 49.299718
516 172 2 -0.325600 84.500853 91.810093 48.870404
517 173 1 0.651200 63.551537 28.865430 12.782728
518 173 2 -0.325600 65.554451 28.858776 11.882670
519 173 2 -0.325600 61.548624 28.872085 13.682785
520 174 1 0.651200 33.594130 42.943472 36.214229
521 174 2 -0.325600 35.461823 41.817004 36.468400
522 174 2 -0.325600 31.726437 44.069940 35.960059
523 175 1 0.651200 41.825113 28.288333 5.573705
524 175 2 -0.325600 40.684398 29.784515 4.441443
525 175 2 -0.325600 42.965829 26.792151 6.705967
526 176 1 0.651200 6.245252 64.038158 90.079824
527 176 2 -0.325600 7.582118 62.296153 90.075729
528 176 2 -0.325600 4.908386 65.780163 90.083920
529 177 1 0.651200 17.091413 91.101888 26.598522
530 177 2 -0.325600 19.215641 91.574955 26.305821
531 177 2 -0.325600 14.967185 90.628821 26.891223
532 178 1 0.651200 61.026760 76.066251 76.822589
533 178 2 -0.325600 58.988758 76.591504 77.449061
534 178 2 -0.325600 63.064762 75.540998 76.196116
535 179 1 0.651200 13.847335 60.985884 84.169874
536 179 2 -0.325600 14.881087 62.577138 85.274898
537 179 2 -0.325600 12.813582 59.394630 83.064851
538 180 1 0.651200 22.568442 60.000486 91.809577
539 180 2 -0.325600 20.421283 59.542012 91.845880
540 180 2 -0.325600 24.715602 60.458961 91.773274
541 181 1 0.651200 32.302888 82.499860 2.109229
542 181 2 -0.325600 30.355536 83.442148 1.732765
543 181 2 -0.325600 34.250240 81.557572 2.485693
544 182 1 0.651200 21.323046 18.742670 79.480040
545 182 2 -0.325600 20.028930 18.170852 81.159356
546 182 2 -0.325600 22.617161 19.314487 77.800725
547 183 1 0.651200 44.911354 62.710165 1.235998
548 183 2 -0.325600 44.052357 64.308991 2.471995
549 183 2 -0.325600 45.770350 61.111339 0.000000
550 184 1 0.651200 1.664278 67.302824 14.059505
551 184 2 -0.325600 0.231880 68.773575 13.280441
552 184 2 -0.325600 3.096675 65.832074 14.838568
553 185 1 0.651200 35.388012 59.806799 23.194822
554 185 2 -0.325600 36.653999 60.716756 21.648514
555 185 2 -0.325600 34.122025 58.896843 24.741129
556 186 1 0.651200 31.677630 51.369372 43.812037
557 186 2 -0.325600 32.748311 52.774759 42.508066
558 186 2 -0.325600 30.606949 49.963985 45.116008
559 187 1 0.651200 64.280314 54.238593 79.702530
560 187 2 -0.325600 62.165436 54.823073 79.789048
561 187 2 -0.325600 66.395192 53.654114 79.616013
562 188 1 0.651200 32.550229 54.787210 29.772906
563 188 2 -0.325600 33.825223 53.653985 31.155657
564 188 2 -0.325600 31.275235 55.920435 28.390155
565 189 1 0.651200 41.975407 51.545825 30.942524
566 189 2 -0.325600 43.649070 50.155466 30.646610
567 189 2 -0.325600 40.301744 52.936184 31.238439
568 190 1 0.651200 14.570565 47.908496 2.691832
569 190 2 -0.325600 16.372757 47.502347 1.504836
570 190 2 -0.325600 12.768374 48.314646 3.878827
571 191 1 0.651200 73.359506 83.826407 53.246795
572 191 2 -0.325600 73.583131 82.170639 54.671658
573 191 2 -0.325600 73.135880 85.482176 51.821933
574 192 1 0.651200 19.725483 44.875760 10.535199
575 192 2 -0.325600 20.848036 44.320449 12.338894
576 192 2 -0.325600 18.602930 45.431072 8.731505
577 193 1 0.651200 28.737007 79.023713 81.990333
578 193 2 -0.325600 27.205819 77.450110 82.022636
579 193 2 -0.325600 30.268196 80.597317 81.958029
580 194 1 0.651200 32.066309 41.789273 28.856932
581 194 2 -0.325600 32.336704 43.732975 29.842183
582 194 2 -0.325600 31.795914 39.845571 27.871680
583 195 1 0.651200 82.058841 51.618411 56.772462
584 195 2 -0.325600 82.221873 50.437049 54.928658
585 195 2 -0.325600 81.895810 52.799773 58.616267
586 196 1 0.651200 36.214924 77.264359 29.122569
587 196 2 -0.325600 35.704395 78.487091 27.371541
588 196 2 -0.325600 36.725452 76.041627 30.873596
589 197 1 0.651200 69.748412 51.862619 28.872437
590 197 2 -0.325600 71.013763 53.655979 28.804907
591 197 2 -0.325600 68.483061 50.069260 28.939967
592 198 1 0.651200 6.251395 31.354575 33.228904
593 198 2 -0.325600 6.226029 29.207473 33.688381
594 198 2 -0.325600 6.276761 33.501677 32.769426
595 199 1 0.651200 79.643878 77.961917 9.386424
596 199 2 -0.325600 80.265855 77.053130 11.286177
597 199 2 -0.325600 79.021901 78.870704 7.486671
598 200 1 0.651200 91.289563 4.414440 20.163136
599 200 2 -0.325600 90.769124 3.482196 18.244315
600 200 2 -0.325600 91.810001 5.346685 22.081957
601 201 1 0.651200 84.074432 0.960355 89.904585
602 201 2 -0.325600 83.560766 -0.000535 87.998109
603 201 2 -0.325600 84.588098 1.921245 91.811060
604 202 1 0.651200 43.657903 72.986039 50.407905
605 202 2 -0.325600 45.147339 74.581834 50.646287
606 202 2 -0.325600 42.168466 71.390243 50.169523
607 203 1 0.651200 5.413453 80.254882 81.983725
608 203 2 -0.325600 6.710628 78.961605 83.194750
609 203 2 -0.325600 4.116277 81.548159 80.772700