LAMMPS Description

2592  atoms
 1728  bonds
 864  angles

 2  atom types
 1  bond types
 1  angle types


0.0 72.8696 xlo xhi
0.0 72.8696 ylo yhi
0.0 72.8696 zlo zhi

Masses

  1 12.0107
  2 15.9994

Bond Coeffs

 1    2.196    0.45106005 -0.67297933 0.5857145

Angle Coeffs

  1    0.0861  180.000000

Atoms

1 1 1 0.651200 60.946543 18.986276 67.549065
2 1 2 -0.325600 58.849867 18.793461 66.925701
3 1 2 -0.325600 63.043219 19.179091 68.172429
4 2 1 0.651200 65.688733 29.053188 52.203864
5 2 2 -0.325600 67.334375 27.599644 52.233532
6 2 2 -0.325600 64.043091 30.506733 52.174196
7 3 1 0.651200 47.624376 12.142635 49.634361
8 3 2 -0.325600 48.932518 13.900732 49.774614
9 3 2 -0.325600 46.316234 10.384538 49.494108
10 4 1 0.651200 54.745358 50.655308 21.475914
11 4 2 -0.325600 53.170171 49.284021 20.797558
12 4 2 -0.325600 56.320545 52.026595 22.154271
13 5 1 0.651200 6.207694 0.071652 19.298376
14 5 2 -0.325600 8.245555 -0.000181 18.483655
15 5 2 -0.325600 4.169832 0.143484 20.113097
16 6 1 0.651200 30.313508 53.881694 50.184687
17 6 2 -0.325600 29.083456 52.088186 50.488188
18 6 2 -0.325600 31.543560 55.675201 49.881185
19 7 1 0.651200 63.016307 54.185650 18.140198
20 7 2 -0.325600 64.742795 54.950723 19.260784
21 7 2 -0.325600 61.289820 53.420577 17.019611
22 8 1 0.651200 42.196099 58.426776 63.937498
23 8 2 -0.325600 41.287363 56.476011 64.373987
24 8 2 -0.325600 43.104835 60.377542 63.501008
25 9 1 0.651200 25.715621 23.844590 66.466048
26 9 2 -0.325600 25.124021 24.184788 68.553171
27 9 2 -0.325600 26.307220 23.504393 64.378924
28 10 1 0.651200 20.960966 51.059723 28.619096
29 10 2 -0.325600 18.779559 50.808229 28.614002
30 10 2 -0.325600 23.142373 51.311217 28.624190
31 11 1 0.651200 23.961075 -0.000060 20.185878
32 11 2 -0.325600 23.551504 -0.000116 18.028551
33 11 2 -0.325600 24.370646 -0.000004 22.343205
34 12 1 0.651200 58.498894 61.614658 51.867529
35 12 2 -0.325600 60.462212 62.573269 51.647856
36 12 2 -0.325600 56.535576 60.656046 52.087202
37 13 1 0.651200 9.513193 13.419560 49.197344
38 13 2 -0.325600 11.075723 14.962082 49.227978
39 13 2 -0.325600 7.950664 11.877039 49.166709
40 14 1 0.651200 19.790599 64.269187 8.931093
41 14 2 -0.325600 21.025498 65.291512 7.430532
42 14 2 -0.325600 18.555701 63.246861 10.431655
43 15 1 0.651200 53.112377 12.002599 46.745747
44 15 2 -0.325600 54.239304 10.843294 48.231633
45 15 2 -0.325600 51.985451 13.161905 45.259861
46 16 1 0.651200 61.018528 23.171408 72.861541
47 16 2 -0.325600 61.523494 25.308403 72.853117
48 16 2 -0.325600 60.513561 21.034413 72.869966
49 17 1 0.651200 4.674410 10.721188 37.963573
50 17 2 -0.325600 5.458202 9.290288 39.433269
51 17 2 -0.325600 3.890618 12.152087 36.493878
52 18 1 0.651200 3.506183 28.944013 25.464552
53 18 2 -0.325600 1.706820 30.178919 25.707678
54 18 2 -0.325600 5.305545 27.709106 25.221425
55 19 1 0.651200 50.567488 30.201431 22.219057
56 19 2 -0.325600 49.942206 30.832625 20.210966
57 19 2 -0.325600 51.192770 29.570237 24.227147
58 20 1 0.651200 34.323559 13.538897 60.576383
59 20 2 -0.325600 34.427290 13.012045 58.447186
60 20 2 -0.325600 34.219827 14.065748 62.705579
61 21 1 0.651200 64.440876 34.441940 66.449598
62 21 2 -0.325600 66.616214 34.244465 66.224397
63 21 2 -0.325600 62.265537 34.639415 66.674799
64 22 1 0.651200 51.914650 9.300982 35.818303
65 22 2 -0.325600 53.907005 9.198668 36.735833
66 22 2 -0.325600 49.922294 9.403295 34.900773
67 23 1 0.651200 44.144311 29.632675 45.729878
68 23 2 -0.325600 42.668899 28.226086 44.913496
69 23 2 -0.325600 45.619723 31.039263 46.546260
70 24 1 0.651200 49.412538 22.011678 24.366174
71 24 2 -0.325600 48.507917 20.536638 23.014238
72 24 2 -0.325600 50.317159 23.486718 25.718109
73 25 1 0.651200 5.806863 46.332770 21.768560
74 25 2 -0.325600 7.061558 46.690550 20.002337
75 25 2 -0.325600 4.552168 45.974989 23.534782
76 26 1 0.651200 34.367548 52.792660 64.218397
77 26 2 -0.325600 34.694167 54.088529 62.476027
78 26 2 -0.325600 34.040928 51.496792 65.960768
79 27 1 0.651200 26.677526 22.038343 26.043819
80 27 2 -0.325600 24.869129 22.784938 27.040867
81 27 2 -0.325600 28.485924 21.291749 25.046770
82 28 1 0.651200 63.501468 33.445662 4.975605
83 28 2 -0.325600 64.198398 32.092397 3.392958
84 28 2 -0.325600 62.804538 34.798928 6.558252
85 29 1 0.651200 40.379195 62.035692 45.806556
86 29 2 -0.325600 42.203450 61.376277 46.835670
87 29 2 -0.325600 38.554940 62.695107 44.777442
88 30 1 0.651200 70.439331 53.037609 71.914027
89 30 2 -0.325600 69.020521 54.450586 71.012760
90 30 2 -0.325600 71.858142 51.624631 72.815295
91 31 1 0.651200 13.470938 37.690998 46.126030
92 31 2 -0.325600 12.433332 36.840490 44.387692
93 31 2 -0.325600 14.508545 38.541506 47.864368
94 32 1 0.651200 32.896059 36.557108 13.948373
95 32 2 -0.325600 31.482676 35.497211 15.252511
96 32 2 -0.325600 34.309443 37.617006 12.644236
97 33 1 0.651200 -0.000029 49.470030 49.891128
98 33 2 -0.325600 -0.000047 50.275728 47.848419
99 33 2 -0.325600 -0.000012 48.664332 51.933837
100 34 1 0.651200 33.247176 68.204946 45.349055
101 34 2 -0.325600 33.035134 70.133881 46.376702
102 34 2 -0.325600 33.459218 66.276012 44.321407
103 35 1 0.651200 68.911902 37.007989 58.665601
104 35 2 -0.325600 70.771878 36.047699 58.002170
105 35 2 -0.325600 67.051925 37.968279 59.329033
106 36 1 0.651200 37.579533 31.554267 48.475678
107 36 2 -0.325600 39.353339 31.950435 47.243415
108 36 2 -0.325600 35.805727 31.158099 49.707941
109 37 1 0.651200 26.254661 12.106120 55.196427
110 37 2 -0.325600 27.157238 13.220890 53.533762
111 37 2 -0.325600 25.352084 10.991350 56.859091
112 38 1 0.651200 10.453344 5.227837 11.517946
113 38 2 -0.325600 11.565020 7.083183 11.896993
114 38 2 -0.325600 9.341668 3.372490 11.138900
115 39 1 0.651200 58.485730 19.417517 49.110086
116 39 2 -0.325600 57.008873 17.792503 49.116027
117 39 2 -0.325600 59.962587 21.042530 49.104145
118 40 1 0.651200 44.054465 70.284054 50.334531
119 40 2 -0.325600 45.691946 71.035465 51.589859
120 40 2 -0.325600 42.416983 69.532643 49.079204
121 41 1 0.651200 29.119143 33.994110 43.521494
122 41 2 -0.325600 27.166124 33.344909 44.287042
123 41 2 -0.325600 31.072162 34.643311 42.755945
124 42 1 0.651200 20.848238 5.487525 72.268981
125 42 2 -0.325600 21.729965 3.568248 72.869600
126 42 2 -0.325600 19.966511 7.406802 71.668362
127 43 1 0.651200 29.764246 62.207877 60.062717
128 43 2 -0.325600 30.265910 60.270171 59.159701
129 43 2 -0.325600 29.262582 64.145584 60.965733
130 44 1 0.651200 9.861621 51.785457 70.165460
131 44 2 -0.325600 11.922057 51.038336 70.300464
132 44 2 -0.325600 7.801186 52.532578 70.030455
133 45 1 0.651200 70.472777 42.086675 27.145117
134 45 2 -0.325600 69.657326 40.047888 27.131057
135 45 2 -0.325600 71.288228 44.125461 27.159177
136 46 1 0.651200 44.831896 17.036143 47.394050
137 46 2 -0.325600 43.242575 17.199578 48.900422
138 46 2 -0.325600 46.421217 16.872708 45.887677
139 47 1 0.651200 38.301434 39.317933 55.028390
140 47 2 -0.325600 36.920523 41.021695 55.138337
141 47 2 -0.325600 39.682345 37.614170 54.918443
142 48 1 0.651200 70.816794 46.708210 18.894119
143 48 2 -0.325600 69.025668 47.905120 19.319657
144 48 2 -0.325600 72.607921 45.511300 18.468581
145 49 1 0.651200 24.802506 3.137409 0.004191
146 49 2 -0.325600 24.445561 5.304059 0.009399
147 49 2 -0.325600 25.159451 0.970758 -0.001016
148 50 1 0.651200 16.325440 26.183979 41.765539
149 50 2 -0.325600 14.276661 26.755885 41.220344
150 50 2 -0.325600 18.374219 25.612072 42.310734
151 51 1 0.651200 36.967070 52.927893 34.226467
152 51 2 -0.325600 37.131449 54.949049 35.068915
153 51 2 -0.325600 36.802691 50.906737 33.384019
154 52 1 0.651200 20.586872 7.294731 38.363998
155 52 2 -0.325600 20.540431 6.391368 40.364895
156 52 2 -0.325600 20.633312 8.198094 36.363101
157 53 1 0.651200 72.748909 68.867815 37.937350
158 53 2 -0.325600 72.869631 67.264289 39.432655
159 53 2 -0.325600 72.628187 70.471342 36.442044
160 54 1 0.651200 37.436495 55.349457 44.768882
161 54 2 -0.325600 38.644316 56.809905 45.877969
162 54 2 -0.325600 36.228675 53.889009 43.659796
163 55 1 0.651200 68.182179 68.753052 2.031789
164 55 2 -0.325600 69.979053 70.005675 1.876900
165 55 2 -0.325600 66.385305 67.500430 2.186679
166 56 1 0.651200 20.096576 55.863278 71.824956
167 56 2 -0.325600 20.153725 57.793886 72.869609
168 56 2 -0.325600 20.039427 53.932671 70.780303
169 57 1 0.651200 5.667650 24.727447 47.424754
170 57 2 -0.325600 7.619912 24.433689 46.463408
171 57 2 -0.325600 3.715387 25.021204 48.386101
172 58 1 0.651200 63.367324 5.857295 65.318340
173 58 2 -0.325600 64.700273 7.433526 64.569640
174 58 2 -0.325600 62.034376 4.281063 66.067040
175 59 1 0.651200 59.109100 32.256353 33.404119
176 59 2 -0.325600 60.968192 31.099833 33.571599
177 59 2 -0.325600 57.250008 33.412874 33.236640
178 60 1 0.651200 48.933706 64.938766 19.685078
179 60 2 -0.325600 49.321315 62.779197 19.596583
180 60 2 -0.325600 48.546096 67.098335 19.773573
181 61 1 0.651200 12.056133 71.982175 32.340192
182 61 2 -0.325600 14.186319 72.184413 31.847022
183 61 2 -0.325600 9.925946 71.779937 32.833362
184 62 1 0.651200 39.340560 70.688447 60.443688
185 62 2 -0.325600 39.104153 68.505348 60.443586
186 62 2 -0.325600 39.576968 72.871546 60.443790
187 63 1 0.651200 59.965457 58.527107 24.015596
188 63 2 -0.325600 58.205403 59.235745 25.120969
189 63 2 -0.325600 61.725512 57.818469 22.910222
190 64 1 0.651200 45.496091 51.158088 67.013176
191 64 2 -0.325600 45.679451 49.176510 66.084986
192 64 2 -0.325600 45.312731 53.139666 67.941367
193 65 1 0.651200 36.786417 8.022046 58.334546
194 65 2 -0.325600 35.428536 6.843576 59.595171
195 65 2 -0.325600 38.144299 9.200516 57.073921
196 66 1 0.651200 46.236613 47.854882 23.259587
197 66 2 -0.325600 44.724460 46.527635 22.380029
198 66 2 -0.325600 47.748766 49.182128 24.139145
199 67 1 0.651200 20.208294 52.994239 42.383455
200 67 2 -0.325600 21.337565 54.850213 42.064208
201 67 2 -0.325600 19.079023 51.138266 42.702701
202 68 1 0.651200 39.064890 57.949066 25.343083
203 68 2 -0.325600 40.582579 59.283694 24.484481
204 68 2 -0.325600 37.547201 56.614438 26.201685
205 69 1 0.651200 72.128220 21.936189 39.338639
206 69 2 -0.325600 71.386839 23.962859 39.744565
207 69 2 -0.325600 72.869600 19.909520 38.932713
208 70 1 0.651200 61.061971 46.996616 41.114229
209 70 2 -0.325600 60.561674 47.955190 39.203039
210 70 2 -0.325600 61.562269 46.038041 43.025419
211 71 1 0.651200 37.666495 67.300752 33.855860
212 71 2 -0.325600 39.844694 67.297484 33.577920
213 71 2 -0.325600 35.488297 67.304019 34.133800
214 72 1 0.651200 41.960502 41.492218 32.487072
215 72 2 -0.325600 41.378784 43.607330 32.388509
216 72 2 -0.325600 42.542220 39.377106 32.585634
217 73 1 0.651200 26.382546 47.804517 57.987283
218 73 2 -0.325600 28.180906 46.785743 57.245792
219 73 2 -0.325600 24.584186 48.823292 58.728774
220 74 1 0.651200 68.012098 24.746100 7.396556
221 74 2 -0.325600 68.390478 22.583758 7.342569
222 74 2 -0.325600 67.633718 26.908442 7.450543
223 75 1 0.651200 30.024072 38.594180 29.285467
224 75 2 -0.325600 28.130845 37.481885 29.302812
225 75 2 -0.325600 31.917299 39.706475 29.268122
226 76 1 0.651200 25.539338 9.721588 69.497420
227 76 2 -0.325600 24.233011 9.578960 67.738165
228 76 2 -0.325600 26.845665 9.864217 71.256674
229 77 1 0.651200 1.250074 70.819403 55.333722
230 77 2 -0.325600 1.906479 72.308055 56.808462
231 77 2 -0.325600 0.593669 69.330751 53.858983
232 78 1 0.651200 21.921720 61.866728 22.802728
233 78 2 -0.325600 20.110499 62.879685 23.520505
234 78 2 -0.325600 23.732941 60.853770 22.084950
235 79 1 0.651200 64.978696 12.199212 59.380514
236 79 2 -0.325600 63.043018 11.291556 59.881631
237 79 2 -0.325600 66.914375 13.106868 58.879396
238 80 1 0.651200 31.616872 44.950487 2.721616
239 80 2 -0.325600 30.829370 45.456691 4.707922
240 80 2 -0.325600 32.404373 44.444283 0.735311
241 81 1 0.651200 36.080022 54.805162 20.152142
242 81 2 -0.325600 38.101551 54.659617 20.997156
243 81 2 -0.325600 34.058493 54.950707 19.307129
244 82 1 0.651200 19.768481 11.081280 55.086211
245 82 2 -0.325600 21.067889 11.377126 53.340982
246 82 2 -0.325600 18.469072 10.785434 56.831439
247 83 1 0.651200 21.305652 15.782013 38.899169
248 83 2 -0.325600 20.239717 14.675376 40.467910
249 83 2 -0.325600 22.371586 16.888650 37.330428
250 84 1 0.651200 26.988599 43.686812 47.430379
251 84 2 -0.325600 25.012270 43.566859 48.379877
252 84 2 -0.325600 28.964927 43.806764 46.480881
253 85 1 0.651200 52.565088 58.393268 41.356138
254 85 2 -0.325600 52.549772 57.960036 39.203492
255 85 2 -0.325600 52.580405 58.826500 43.508784
256 86 1 0.651200 33.216159 72.869233 6.126172
257 86 2 -0.325600 34.218183 72.884578 4.172324
258 86 2 -0.325600 32.214136 72.853888 8.080021
259 87 1 0.651200 20.836640 52.949479 57.302926
260 87 2 -0.325600 18.981188 52.439023 58.360538
261 87 2 -0.325600 22.692092 53.459935 56.245314
262 88 1 0.651200 32.686295 30.268462 18.695218
263 88 2 -0.325600 32.089042 32.178365 19.599301
264 88 2 -0.325600 33.283549 28.358558 17.791135
265 89 1 0.651200 41.843667 -0.000702 51.045334
266 89 2 -0.325600 39.826591 0.014908 51.913074
267 89 2 -0.325600 43.860742 -0.016312 50.177594
268 90 1 0.651200 28.097047 17.654741 30.058792
269 90 2 -0.325600 27.560133 16.421368 28.323187
270 90 2 -0.325600 28.633962 18.888113 31.794397
271 91 1 0.651200 34.369421 38.312862 3.344198
272 91 2 -0.325600 33.705557 38.242193 5.436111
273 91 2 -0.325600 35.033285 38.383530 1.252285
274 92 1 0.651200 48.102495 37.001501 60.729754
275 92 2 -0.325600 49.355228 37.930505 62.275529
276 92 2 -0.325600 46.849762 36.072497 59.183979
277 93 1 0.651200 7.132176 3.279413 28.205526
278 93 2 -0.325600 7.505988 1.148576 28.581835
279 93 2 -0.325600 6.758364 5.410250 27.829217
280 94 1 0.651200 58.649251 67.288089 10.278876
281 94 2 -0.325600 60.317061 67.115241 11.696742
282 94 2 -0.325600 56.981441 67.460937 8.861010
283 95 1 0.651200 1.991733 60.225429 14.195126
284 95 2 -0.325600 0.232391 59.141328 14.937589
285 95 2 -0.325600 3.751074 61.309531 13.452662
286 96 1 0.651200 28.844793 32.712342 52.188982
287 96 2 -0.325600 27.988802 31.026282 51.072607
288 96 2 -0.325600 29.700784 34.398401 53.305357
289 97 1 0.651200 7.258136 57.023303 18.720638
290 97 2 -0.325600 8.854702 55.557788 19.074265
291 97 2 -0.325600 5.661570 58.488818 18.367010
292 98 1 0.651200 15.450877 55.994807 0.946753
293 98 2 -0.325600 17.484645 56.040096 0.119984
294 98 2 -0.325600 13.417109 55.949518 1.773521
295 99 1 0.651200 41.815080 26.421559 35.593830
296 99 2 -0.325600 43.755156 27.245983 36.208843
297 99 2 -0.325600 39.875004 25.597135 34.978818
298 100 1 0.651200 24.942486 36.471864 34.644906
299 100 2 -0.325600 26.824030 35.350433 34.490013
300 100 2 -0.325600 23.060941 37.593295 34.799798
301 101 1 0.651200 47.990689 71.846316 29.110201
302 101 2 -0.325600 47.322478 72.869648 30.934508
303 101 2 -0.325600 48.658901 70.822985 27.285894
304 102 1 0.651200 12.371503 35.320446 59.671101
305 102 2 -0.325600 11.717136 37.036273 58.467128
306 102 2 -0.325600 13.025870 33.604619 60.875074
307 103 1 0.651200 63.976891 51.278308 68.689331
308 103 2 -0.325600 65.132948 50.922835 66.856579
309 103 2 -0.325600 62.820834 51.633781 70.522083
310 104 1 0.651200 68.198218 25.487457 57.259609
311 104 2 -0.325600 66.194223 24.600140 57.395560
312 104 2 -0.325600 70.202214 26.374773 57.123659
313 105 1 0.651200 54.786229 30.482399 37.831108
314 105 2 -0.325600 55.800832 28.536074 37.766222
315 105 2 -0.325600 53.771626 32.428724 37.895994
316 106 1 0.651200 17.926925 41.168943 71.926663
317 106 2 -0.325600 16.726076 39.590859 72.869756
318 106 2 -0.325600 19.127773 42.747027 70.983570
319 107 1 0.651200 50.019433 30.829012 42.338012
320 107 2 -0.325600 50.780473 32.872430 42.596992
321 107 2 -0.325600 49.258393 28.785594 42.079032
322 108 1 0.651200 35.622279 69.459465 14.023298
323 108 2 -0.325600 35.014630 68.421392 15.860409
324 108 2 -0.325600 36.229929 70.497538 12.186187
325 109 1 0.651200 22.426253 51.571237 13.228511
326 109 2 -0.325600 23.958675 50.092537 12.692841
327 109 2 -0.325600 20.893832 53.049936 13.764180
328 110 1 0.651200 69.949059 44.022654 70.991998
329 110 2 -0.325600 69.699909 45.415732 72.671006
330 110 2 -0.325600 70.198208 42.629576 69.312990
331 111 1 0.651200 41.667434 71.172231 39.391486
332 111 2 -0.325600 40.516497 69.474738 38.606838
333 111 2 -0.325600 42.818370 72.869723 40.176135
334 112 1 0.651200 68.878004 53.834207 49.789082
335 112 2 -0.325600 66.994631 52.705263 49.803239
336 112 2 -0.325600 70.761377 54.963152 49.774926
337 113 1 0.651200 23.924154 9.423163 43.706284
338 113 2 -0.325600 23.690250 10.634581 41.889813
339 113 2 -0.325600 24.158057 8.211745 45.522754
340 114 1 0.651200 46.927550 37.703324 67.702416
341 114 2 -0.325600 44.771604 37.291492 67.638363
342 114 2 -0.325600 49.083495 38.115156 67.766469
343 115 1 0.651200 33.165016 62.843710 7.539568
344 115 2 -0.325600 35.335857 63.116608 7.353052
345 115 2 -0.325600 30.994176 62.570811 7.726084
346 116 1 0.651200 44.107604 21.811307 3.266580
347 116 2 -0.325600 41.920967 21.610334 3.260614
348 116 2 -0.325600 46.294242 22.012281 3.272546
349 117 1 0.651200 31.505136 24.199749 52.836086
350 117 2 -0.325600 33.167070 22.770558 52.704955
351 117 2 -0.325600 29.843202 25.628941 52.967217
352 118 1 0.651200 16.146808 12.691480 35.309889
353 118 2 -0.325600 15.343423 10.648274 35.268780
354 118 2 -0.325600 16.950193 14.734687 35.350999
355 119 1 0.651200 38.658090 59.132548 72.185851
356 119 2 -0.325600 37.401676 60.927093 72.034705
357 119 2 -0.325600 39.914503 57.338004 72.336996
358 120 1 0.651200 33.846700 62.047156 17.953815
359 120 2 -0.325600 35.098484 60.255980 18.169537
360 120 2 -0.325600 32.594917 63.838333 17.738092
361 121 1 0.651200 12.741480 34.700413 71.286709
362 121 2 -0.325600 14.890717 34.538268 71.706590
363 121 2 -0.325600 10.592243 34.862557 70.866828
364 122 1 0.651200 22.561924 15.946692 23.975382
365 122 2 -0.325600 23.858646 17.713730 24.109159
366 122 2 -0.325600 21.265201 14.179653 23.841606
367 123 1 0.651200 6.829736 50.569549 48.937316
368 123 2 -0.325600 5.609452 52.036484 50.023970
369 123 2 -0.325600 8.050021 49.102614 47.850663
370 124 1 0.651200 30.649761 -0.000108 19.528064
371 124 2 -0.325600 29.771729 -0.000105 17.515387
372 124 2 -0.325600 31.527793 -0.000111 21.540741
373 125 1 0.651200 2.671885 0.953388 54.370695
374 125 2 -0.325600 0.811331 1.659418 55.298959
375 125 2 -0.325600 4.532438 0.247359 53.442431
376 126 1 0.651200 59.934932 72.869600 46.461397
377 126 2 -0.325600 61.934194 72.869600 45.553234
378 126 2 -0.325600 57.935670 72.869600 47.369561
379 127 1 0.651200 44.032258 56.164299 21.264139
380 127 2 -0.325600 43.712791 54.267456 22.323259
381 127 2 -0.325600 44.351724 58.061143 20.205019
382 128 1 0.651200 64.850831 59.246350 53.932470
383 128 2 -0.325600 64.216338 60.856928 55.283495
384 128 2 -0.325600 65.485324 57.635772 52.581446
385 129 1 0.651200 8.354845 53.949733 3.221086
386 129 2 -0.325600 9.317083 52.037581 3.710559
387 129 2 -0.325600 7.392607 55.861885 2.731613
388 130 1 0.651200 70.502151 31.852007 70.428910
389 130 2 -0.325600 69.188827 31.230654 72.075394
390 130 2 -0.325600 71.815475 32.473361 68.782426
391 131 1 0.651200 15.806446 17.297613 59.874370
392 131 2 -0.325600 16.197793 15.368443 58.901251
393 131 2 -0.325600 15.415099 19.226783 60.847488
394 132 1 0.651200 54.929392 37.298508 57.229678
395 132 2 -0.325600 53.591033 37.806200 55.564489
396 132 2 -0.325600 56.267751 36.790817 58.894867
397 133 1 0.651200 31.323859 48.228881 72.412651
398 133 2 -0.325600 32.841804 49.748371 72.869600
399 133 2 -0.325600 29.805914 46.709391 71.955702
400 134 1 0.651200 16.702913 10.704380 12.288560
401 134 2 -0.325600 17.981414 10.988717 10.526063
402 134 2 -0.325600 15.424412 10.420043 14.051058
403 135 1 0.651200 5.102775 48.516050 5.826467
404 135 2 -0.325600 3.949693 48.431567 3.959632
405 135 2 -0.325600 6.255857 48.600533 7.693302
406 136 1 0.651200 40.640982 23.064437 45.988808
407 136 2 -0.325600 39.949494 23.384226 43.929345
408 136 2 -0.325600 41.332471 22.744649 48.048272
409 137 1 0.651200 38.629904 67.944207 5.747323
410 137 2 -0.325600 40.712860 67.512797 5.202352
411 137 2 -0.325600 36.546949 68.375616 6.292293
412 138 1 0.651200 49.782151 44.744562 48.061181
413 138 2 -0.325600 50.329398 45.464526 50.062176
414 138 2 -0.325600 49.234903 44.024598 46.060185
415 139 1 0.651200 39.627848 55.365455 15.081878
416 139 2 -0.325600 41.752246 54.824513 15.208858
417 139 2 -0.325600 37.503450 55.906397 14.954898
418 140 1 0.651200 62.770169 59.812041 15.490531
419 140 2 -0.325600 61.411945 60.683876 16.979469
420 140 2 -0.325600 64.128394 58.940205 14.001593
421 141 1 0.651200 65.579445 40.388503 4.142070
422 141 2 -0.325600 67.410445 39.185175 3.996287
423 141 2 -0.325600 63.748446 41.591831 4.287854
424 142 1 0.651200 40.917359 13.555590 28.869136
425 142 2 -0.325600 43.077612 13.252266 28.617919
426 142 2 -0.325600 38.757106 13.858914 29.120353
427 143 1 0.651200 47.925403 63.015894 38.292726
428 143 2 -0.325600 49.985700 63.469375 38.902104
429 143 2 -0.325600 45.865106 62.562413 37.683349
430 144 1 0.651200 52.229179 47.195026 56.059805
431 144 2 -0.325600 52.348097 49.387274 56.101219
432 144 2 -0.325600 52.110261 45.002777 56.018391
433 145 1 0.651200 57.506471 3.563694 1.933966
434 145 2 -0.325600 58.869041 1.955763 2.550224
435 145 2 -0.325600 56.143902 5.171624 1.317708
436 146 1 0.651200 44.023328 42.026909 49.452942
437 146 2 -0.325600 44.396601 44.143218 49.001594
438 146 2 -0.325600 43.650056 39.910600 49.904289
439 147 1 0.651200 6.541754 35.264698 26.909420
440 147 2 -0.325600 5.136533 36.203992 25.507674
441 147 2 -0.325600 7.946975 34.325404 28.311166
442 148 1 0.651200 32.307251 49.714084 21.496255
443 148 2 -0.325600 30.855477 51.310508 21.903187
444 148 2 -0.325600 33.759024 48.117660 21.089323
445 149 1 0.651200 69.505777 20.660849 33.091833
446 149 2 -0.325600 70.210968 21.312515 31.117030
447 149 2 -0.325600 68.800586 20.009183 35.066636
448 150 1 0.651200 57.612858 43.730126 58.051037
449 150 2 -0.325600 59.127355 44.648489 56.753070
450 150 2 -0.325600 56.098362 42.811763 59.349004
451 151 1 0.651200 21.485503 48.305670 47.207792
452 151 2 -0.325600 19.344263 47.830153 47.103938
453 151 2 -0.325600 23.626742 48.781186 47.311646
454 152 1 0.651200 34.749734 44.736861 35.065117
455 152 2 -0.325600 34.843190 45.762088 33.125533
456 152 2 -0.325600 34.656278 43.711634 37.004701
457 153 1 0.651200 66.348572 10.185406 41.576596
458 153 2 -0.325600 66.016477 8.331415 42.705419
459 153 2 -0.325600 66.680667 12.039396 40.447773
460 154 1 0.651200 67.550620 27.233319 18.448062
461 154 2 -0.325600 69.735159 27.452007 18.490211
462 154 2 -0.325600 65.366082 27.014630 18.405912
463 155 1 0.651200 45.626303 51.791992 4.174756
464 155 2 -0.325600 45.207069 51.252619 2.087862
465 155 2 -0.325600 46.045537 52.331366 6.261651
466 156 1 0.651200 36.090321 58.792352 50.327290
467 156 2 -0.325600 35.153061 60.599527 49.504204
468 156 2 -0.325600 37.027581 56.985177 51.150376
469 157 1 0.651200 27.792836 64.659618 29.169414
470 157 2 -0.325600 29.073535 65.668467 30.640415
471 157 2 -0.325600 26.512136 63.650770 27.698413
472 158 1 0.651200 20.446203 22.047079 8.510717
473 158 2 -0.325600 19.870244 19.937766 8.308522
474 158 2 -0.325600 21.022161 24.156391 8.712912
475 159 1 0.651200 3.517988 38.086538 59.672300
476 159 2 -0.325600 5.155948 38.731779 60.984764
477 159 2 -0.325600 1.880029 37.441297 58.359836
478 160 1 0.651200 5.762525 23.208850 63.942373
479 160 2 -0.325600 4.166056 23.036647 65.440186
480 160 2 -0.325600 7.358993 23.381054 62.444559
481 161 1 0.651200 67.129492 39.418191 9.484156
482 161 2 -0.325600 64.956401 39.626285 9.721182
483 161 2 -0.325600 69.302583 39.210097 9.247130
484 162 1 0.651200 30.355344 58.002201 66.347448
485 162 2 -0.325600 29.674070 58.401127 64.298415
486 162 2 -0.325600 31.036617 57.603274 68.396480
487 163 1 0.651200 40.627175 47.405026 44.208604
488 163 2 -0.325600 39.400285 48.647257 45.540299
489 163 2 -0.325600 41.854065 46.162794 42.876909
490 164 1 0.651200 42.764956 57.391881 4.210968
491 164 2 -0.325600 41.602909 55.536270 4.378791
492 164 2 -0.325600 43.927003 59.247492 4.043146
493 165 1 0.651200 49.300596 58.126419 4.365131
494 165 2 -0.325600 50.012351 58.918520 2.444769
495 165 2 -0.325600 48.588840 57.334319 6.285494
496 166 1 0.651200 30.618051 53.057436 14.352568
497 166 2 -0.325600 32.811048 53.122739 14.261403
498 166 2 -0.325600 28.425055 52.992133 14.443732
499 167 1 0.651200 55.454767 52.641330 52.937239
500 167 2 -0.325600 53.797848 54.006929 52.477274
501 167 2 -0.325600 57.111687 51.275732 53.397204
502 168 1 0.651200 72.031582 66.239648 58.046978
503 168 2 -0.325600 71.462463 66.674245 60.122801
504 168 2 -0.325600 72.600701 65.805051 55.971156
505 169 1 0.651200 57.586406 4.225809 48.552605
506 169 2 -0.325600 56.532680 5.552823 49.949211
507 169 2 -0.325600 58.640131 2.898796 47.156000
508 170 1 0.651200 30.364953 36.690254 48.179963
509 170 2 -0.325600 28.906665 38.331908 48.166603
510 170 2 -0.325600 31.823240 35.048599 48.193323
511 171 1 0.651200 69.723944 64.111805 36.205195
512 171 2 -0.325600 71.217149 63.248119 34.846447
513 171 2 -0.325600 68.230739 64.975491 37.563942
514 172 1 0.651200 32.873825 12.343801 27.913517
515 172 2 -0.325600 32.484565 10.187589 28.058552
516 172 2 -0.325600 33.263085 14.500013 27.768482
517 173 1 0.651200 4.118666 33.983686 43.787407
518 173 2 -0.325600 5.386279 32.968796 45.265570
519 173 2 -0.325600 2.851053 34.998577 42.309245
520 174 1 0.651200 15.420454 55.402962 16.586421
521 174 2 -0.325600 15.986921 53.296680 16.840395
522 174 2 -0.325600 14.853987 57.509244 16.332447
523 175 1 0.651200 35.831110 42.052473 9.770094
524 175 2 -0.325600 33.854332 42.493843 8.921949
525 175 2 -0.325600 37.807888 41.611104 10.618240
526 176 1 0.651200 4.644656 4.898340 8.323145
527 176 2 -0.325600 5.035779 2.812362 7.759648
528 176 2 -0.325600 4.253532 6.984318 8.886643
529 177 1 0.651200 69.082214 28.954096 44.794595
530 177 2 -0.325600 66.949582 28.751099 45.276761
531 177 2 -0.325600 71.214846 29.157093 44.312430
532 178 1 0.651200 33.083832 11.660016 47.163344
533 178 2 -0.325600 32.738325 9.787013 48.256182
534 178 2 -0.325600 33.429338 13.533019 46.070506
535 179 1 0.651200 69.368772 11.689453 26.593677
536 179 2 -0.325600 69.607898 13.832960 26.181355
537 179 2 -0.325600 69.129647 9.545947 27.005998
538 180 1 0.651200 56.358459 5.185018 60.877409
539 180 2 -0.325600 58.361751 4.352752 60.536871
540 180 2 -0.325600 54.355167 6.017283 61.217946
541 181 1 0.651200 71.691387 13.013470 70.608823
542 181 2 -0.325600 70.521055 13.981994 69.023234
543 181 2 -0.325600 72.861719 12.044945 72.194413
544 182 1 0.651200 41.712487 5.500261 21.966373
545 182 2 -0.325600 43.273055 6.513057 20.799890
546 182 2 -0.325600 40.151919 4.487464 23.132855
547 183 1 0.651200 28.304019 18.912752 52.215507
548 183 2 -0.325600 29.663387 18.710187 53.928078
549 183 2 -0.325600 26.944652 19.115316 50.502937
550 184 1 0.651200 48.189077 17.382965 29.695482
551 184 2 -0.325600 47.882332 19.483212 29.132739
552 184 2 -0.325600 48.495822 15.282718 30.258226
553 185 1 0.651200 54.785491 26.338207 58.020456
554 185 2 -0.325600 54.282905 24.371639 57.182704
555 185 2 -0.325600 55.288078 28.304774 58.858209
556 186 1 0.651200 19.593286 29.814009 57.233203
557 186 2 -0.325600 17.821301 28.789035 58.027753
558 186 2 -0.325600 21.365270 30.838983 56.438653
559 187 1 0.651200 13.936408 6.009057 28.513208
560 187 2 -0.325600 13.992676 3.824424 28.727733
561 187 2 -0.325600 13.880139 8.193690 28.298682
562 188 1 0.651200 42.911198 5.247888 57.151886
563 188 2 -0.325600 44.292770 5.243969 55.445119
564 188 2 -0.325600 41.529627 5.251807 58.858653
565 189 1 0.651200 48.259988 38.894665 0.019991
566 189 2 -0.325600 47.936723 41.066510 0.000010
567 189 2 -0.325600 48.583254 36.722820 0.039972
568 190 1 0.651200 59.684601 44.286702 -0.002846
569 190 2 -0.325600 60.294528 46.396156 -0.002329
570 190 2 -0.325600 59.074675 42.177247 -0.003363
571 191 1 0.651200 32.174427 26.125005 59.124757
572 191 2 -0.325600 34.250278 25.737285 58.522821
573 191 2 -0.325600 30.098577 26.512726 59.726693
574 192 1 0.651200 55.144023 38.503368 47.457221
575 192 2 -0.325600 55.215461 39.925868 45.785935
576 192 2 -0.325600 55.072585 37.080867 49.128508
577 193 1 0.651200 12.121103 54.317021 47.835601
578 193 2 -0.325600 11.305216 56.314092 48.245294
579 193 2 -0.325600 12.936991 52.319951 47.425909
580 194 1 0.651200 26.745023 28.568160 20.563834
581 194 2 -0.325600 26.937184 26.817758 19.251974
582 194 2 -0.325600 26.552863 30.318562 21.875695
583 195 1 0.651200 23.056596 42.965595 20.988999
584 195 2 -0.325600 24.436086 41.265360 21.156380
585 195 2 -0.325600 21.677105 44.665830 20.821617
586 196 1 0.651200 20.274217 28.108709 22.087303
587 196 2 -0.325600 21.173077 26.394538 23.124357
588 196 2 -0.325600 19.375356 29.822879 21.050250
589 197 1 0.651200 64.549108 43.593376 29.913111
590 197 2 -0.325600 66.150806 45.095469 29.922663
591 197 2 -0.325600 62.947409 42.091284 29.903560
592 198 1 0.651200 35.834581 1.733139 18.591602
593 198 2 -0.325600 34.822263 2.450964 16.780041
594 198 2 -0.325600 36.846898 1.015315 20.403162
595 199 1 0.651200 71.563776 45.715755 12.110999
596 199 2 -0.325600 72.869597 47.470292 11.915450
597 199 2 -0.325600 70.257954 43.961217 12.306549
598 200 1 0.651200 71.475016 39.623123 21.691321
599 200 2 -0.325600 72.869492 41.293157 21.988361
600 200 2 -0.325600 70.080539 37.953090 21.394280
601 201 1 0.651200 57.211362 10.196110 64.719745
602 201 2 -0.325600 55.123389 9.723472 65.208408
603 201 2 -0.325600 59.299335 10.668748 64.231081
604 202 1 0.651200 64.854618 8.844545 9.174193
605 202 2 -0.325600 65.653374 6.811369 8.950604
606 202 2 -0.325600 64.055862 10.877722 9.397782
607 203 1 0.651200 2.018838 41.999400 34.587241
608 203 2 -0.325600 0.177987 40.870725 34.188277
609 203 2 -0.325600 3.859688 43.128075 34.986205
610 204 1 0.651200 33.692574 29.195889 42.999940