1298
# CELL(abcABC):   57.83670    57.83670    57.83670    90.00000    90.00000    90.00000  Step:         300  Bead:       0 x_centroid{angstrom}  cell{atomic_unit}
       C  1.17337e+01  2.39391e+01  1.26737e+01
       O  1.14788e+01  2.29805e+01  1.32819e+01
       O  1.19789e+01  2.49076e+01  1.20799e+01
       C  6.75585e+00  2.13590e+01  2.98910e+01
       O  5.61753e+00  2.15203e+01  3.00596e+01
       O  7.89753e+00  2.11925e+01  2.97388e+01
       C  2.45383e+01  2.15107e+01  1.11121e+00
       O  2.36791e+01  2.22883e+01  1.22016e+00
       O  2.54047e+01  2.07460e+01  9.91653e-01
       C  2.24718e+01  2.70363e+01  2.70183e+01
       O  2.33242e+01  2.63274e+01  2.73720e+01
       O  2.16143e+01  2.77405e+01  2.66736e+01
       C  2.18959e+01  1.65325e+01  1.44539e+01
       O  2.10697e+01  1.69612e+01  1.37572e+01
       O  2.27098e+01  1.60868e+01  1.51538e+01
       C  1.31359e+01  6.30469e+00  5.56199e+00
       O  1.31899e+01  5.77953e+00  4.52631e+00
       O  1.30717e+01  6.83472e+00  6.59460e+00
       C  1.27327e+01  2.56950e+01  1.76997e+01
       O  1.17547e+01  2.63028e+01  1.78498e+01
       O  1.37049e+01  2.50765e+01  1.75317e+01
       C  1.35077e+01  1.70525e+01  2.26913e+00
       O  1.43214e+01  1.67219e+01  3.03626e+00
       O  1.26976e+01  1.73698e+01  1.50121e+00
       C  1.87946e+01  4.48613e+00  2.88965e+01
       O  1.94346e+01  5.44735e+00  2.90518e+01
       O  1.81719e+01  3.51683e+00  2.87435e+01
       C  6.00808e+00  4.23761e+00  2.83212e+01
       O  7.12352e+00  4.13114e+00  2.86341e+01
       O  4.89729e+00  4.35853e+00  2.80018e+01
       C  2.01186e+01  2.06653e+01  2.99653e+01
       O  2.09838e+01  2.13031e+01  2.95245e+01
       O  1.92507e+01  2.00293e+01  3.04083e+01
       C  1.82337e+00  4.50317e+00  6.97856e+00
       O  1.78434e+00  3.34808e+00  6.85112e+00
       O  1.85225e+00  5.65961e+00  7.09762e+00
       C  2.36143e+01  1.92003e+01  1.76885e+01
       O  2.32243e+01  2.02366e+01  1.80428e+01
       O  2.39980e+01  1.81579e+01  1.73458e+01
       C  1.84330e+00  9.02766e+00  6.43654e+00
       O  2.94639e+00  9.20521e+00  6.75901e+00
       O  7.39753e-01  8.84425e+00  6.11897e+00
       C  1.01299e+01  8.01601e+00  2.95366e+01
       O  9.38366e+00  8.86290e+00  2.92569e+01
       O  1.08778e+01  7.16854e+00  2.98093e+01
       C  2.15774e+01  1.63050e+01  2.30710e+01
       O  2.22405e+01  1.61851e+01  2.21237e+01
       O  2.09167e+01  1.64232e+01  2.40206e+01
       C  2.64044e+01  1.68239e+01  1.60606e+01
       O  2.58680e+01  1.67624e+01  1.50311e+01
       O  2.69524e+01  1.68920e+01  1.70844e+01
       C  1.84464e+01  8.30405e+00  1.52557e+01
       O  1.87752e+01  7.23865e+00  1.49273e+01
       O  1.81235e+01  9.37383e+00  1.55738e+01
       C  2.11163e+01  7.16289e+00  2.43374e+01
       O  2.01355e+01  6.59011e+00  2.45860e+01
       O  2.20992e+01  7.73326e+00  2.40921e+01
       C  3.71526e+00  1.91239e+01  1.05626e+01
       O  3.97019e+00  1.87356e+01  1.16282e+01
       O  3.45988e+00  1.95238e+01  9.50002e+00
       C  7.45440e+00  1.98310e+01  2.65236e+01
       O  8.51010e+00  2.02677e+01  2.67296e+01
       O  6.39688e+00  1.93975e+01  2.63103e+01
       C  1.64484e+01  2.93698e+01  2.40915e+01
       O  1.72114e+01  2.88409e+01  2.33886e+01
       O  1.56835e+01  2.99245e+01  2.47667e+01
       C  8.83835e+00  2.18963e+01  1.66703e+01
       O  8.55516e+00  2.17997e+01  1.55463e+01
       O  9.12249e+00  2.19947e+01  1.77940e+01
       C  2.40036e+01  2.88832e+01  1.81445e+01
       O  2.48397e+01  2.80980e+01  1.83366e+01
       O  2.31701e+01  2.96711e+01  1.79573e+01
       C  2.53966e+01  5.06064e+00  2.11185e+01
       O  2.47806e+01  4.08006e+00  2.12254e+01
       O  2.59950e+01  6.05305e+00  2.10168e+01
       C  1.06893e+01  2.45906e+01  2.54886e+01
       O  1.09041e+01  2.34981e+01  2.51522e+01
       O  1.04685e+01  2.56836e+01  2.58172e+01
       C  1.98235e+01  1.85348e+01  1.70678e+01
       O  2.08818e+01  1.84688e+01  1.65903e+01
       O  1.87687e+01  1.85814e+01  1.75548e+01
       C  1.59535e+01  2.10494e+01  8.69946e+00
       O  1.58614e+01  2.08746e+01  9.84548e+00
       O  1.60542e+01  2.12194e+01  7.55365e+00
       C  2.08985e+01  2.72736e+01  5.75751e+00
       O  2.08033e+01  2.80502e+01  4.89769e+00
       O  2.10052e+01  2.64796e+01  6.60104e+00
       C  5.61444e+00  1.64284e+01  2.63539e+01
       O  6.61846e+00  1.62932e+01  2.69250e+01
       O  4.61159e+00  1.65406e+01  2.57773e+01
       C  7.88154e+00  1.72998e+00  1.55463e+01
       O  7.51024e+00  6.81338e-01  1.58837e+01
       O  8.24748e+00  2.78302e+00  1.52147e+01
       C  2.21606e+01  5.18606e+00  2.75765e+01
       O  2.20287e+01  6.22734e+00  2.70742e+01
       O  2.22750e+01  4.14941e+00  2.80908e+01
       C  2.46274e+01  1.48523e+01  2.49514e+01
       O  2.35876e+01  1.44593e+01  2.46088e+01
       O  2.56631e+01  1.52458e+01  2.53036e+01
       C  2.13178e+01  3.06057e+01  2.00853e+01
       O  2.20852e+01  3.01505e+01  2.08317e+01
       O  2.05446e+01  3.10527e+01  1.93401e+01
       C  6.97362e+00  2.11209e+01  9.74667e+00
       O  6.33599e+00  2.03630e+01  1.03559e+01
       O  7.59912e+00  2.18850e+01  9.13309e+00
       C  2.47352e+01  1.01590e+01  1.24141e+00
       O  2.42096e+01  1.05468e+01  2.20246e+00
       O  2.52756e+01  9.77862e+00  2.83489e-01
       C  1.40095e+01  2.08969e+01  2.78084e+01
       O  1.43415e+01  1.99052e+01  2.83155e+01
       O  1.36750e+01  2.18858e+01  2.72958e+01
       C  2.17290e+01  1.19499e+00  1.65418e+01
       O  2.24243e+01  1.96581e+00  1.70668e+01
       O  2.10304e+01  4.16735e-01  1.60330e+01
       C  1.43187e+01  3.39762e+00  1.13852e+01
       O  1.46125e+01  2.44357e+00  1.07889e+01
       O  1.40193e+01  4.34826e+00  1.19845e+01
       C  5.91670e+00  1.44580e+01  2.18952e+01
       O  5.91653e+00  1.56200e+01  2.19412e+01
       O  5.91251e+00  1.32952e+01  2.18535e+01
       C  1.24083e+01  1.70839e+01  1.55829e+01
       O  1.32510e+01  1.78817e+01  1.56414e+01
       O  1.15671e+01  1.62835e+01  1.55162e+01
       C  2.81278e+01  2.09295e+00  6.07208e-01
       O  2.78619e+01  3.19365e+00  3.41372e-01
       O  2.83850e+01  9.90442e-01  8.70721e-01
       C  2.51390e+01  1.79716e+01  2.95894e+00
       O  2.56954e+01  1.83635e+01  3.90190e+00
       O  2.45912e+01  1.75817e+01  2.01010e+00
       C  2.34550e+01  7.14575e+00  3.02824e+01
       O  2.40056e+01  6.38277e+00  2.95989e+01
       O  2.28792e+01  7.89813e+00  3.09553e+01
       C  2.51517e+01  2.53303e+01  2.52156e+01
       O  2.58963e+01  2.61888e+01  2.54621e+01
       O  2.44032e+01  2.44721e+01  2.49765e+01
       C  8.31001e+00  1.49397e+01  1.04557e+01
       O  7.56518e+00  1.42234e+01  9.92253e+00
       O  9.05114e+00  1.56654e+01  1.09815e+01
       C  1.87959e+01  1.19753e+01  1.65722e+01
       O  1.94924e+01  1.14532e+01  1.73441e+01
       O  1.81079e+01  1.24985e+01  1.57937e+01
       C  1.83879e+01  4.16375e+00  1.08386e+01
       O  1.93166e+01  4.48037e+00  1.02142e+01
       O  1.74603e+01  3.85133e+00  1.14665e+01
       C  4.38417e+00  1.18216e+01  8.55304e+00
       O  3.63720e+00  1.12498e+01  9.23641e+00
       O  5.11497e+00  1.24049e+01  7.86199e+00
       C  2.11088e+01  2.29692e+01  1.70353e+01
       O  2.08155e+01  2.36709e+01  1.79150e+01
       O  2.14156e+01  2.22834e+01  1.61478e+01
       C  1.54634e+00  1.96066e+01  1.89614e+01
       O  2.01829e+00  2.03660e+01  1.82175e+01
       O  1.06926e+00  1.88459e+01  1.96994e+01
       C  2.16073e+01  9.47433e+00  1.69632e+01
       O  2.09263e+01  8.57422e+00  1.72426e+01
       O  2.22765e+01  1.03762e+01  1.66610e+01
       C  5.29807e+00  1.47656e+01  5.14357e-01
       O  4.96519e+00  1.57412e+01 -2.21530e-02
       O  5.64675e+00  1.37964e+01  1.05466e+00
       C  1.27961e+01  2.27226e+01  1.58843e+01
       O  1.17832e+01  2.30062e+01  1.63816e+01
       O  1.38056e+01  2.24641e+01  1.53688e+01
       C  1.63013e+01  1.76860e+01  5.57720e+00
       O  1.72503e+01  1.70111e+01  5.59534e+00
       O  1.53571e+01  1.83605e+01  5.55052e+00
       C  1.94318e+01  1.43457e+01  1.18583e+01
       O  1.99420e+01  1.52380e+01  1.13181e+01
       O  1.89286e+01  1.34422e+01  1.23906e+01
       C  2.95990e+01  1.27692e+01  1.05544e+01
       O  2.93545e+01  1.38288e+01  1.09657e+01
       O  2.98409e+01  1.17095e+01  1.01409e+01
       C  1.67553e+01  1.76825e+01  2.49572e+01
       O  1.61401e+01  1.74824e+01  2.59244e+01
       O  1.73879e+01  1.78902e+01  2.40049e+01
       C  2.95016e+01  2.35780e+01  2.17418e+01
       O  2.93173e+01  2.45821e+01  2.22984e+01
       O  2.96868e+01  2.25765e+01  2.11807e+01
       C  8.22276e+00  1.36601e+01  1.37612e+01
       O  7.21353e+00  1.38334e+01  1.32105e+01
       O  9.23094e+00  1.34802e+01  1.43125e+01
       C  1.79654e+00  1.99950e+01  3.89904e+00
       O  1.00191e+00  1.91498e+01  3.98704e+00
       O  2.60092e+00  2.08285e+01  3.81049e+00
       C  2.66535e+01  2.15634e+01  2.41324e+01
       O  2.67514e+01  2.25092e+01  2.34629e+01
       O  2.65474e+01  2.06205e+01  2.48043e+01
       C  1.38963e+00  2.81571e+01  2.23370e+01
       O  1.61887e+00  2.89457e+01  2.31597e+01
       O  1.16071e+00  2.73720e+01  2.15108e+01
       C  1.34387e+01  2.15380e+01  2.20703e+00
       O  1.31177e+01  2.26108e+01  2.52279e+00
       O  1.37651e+01  2.04650e+01  1.90367e+00
       C  1.85324e+01  1.45210e+01  4.47366e+00
       O  1.96459e+01  1.48305e+01  4.58860e+00
       O  1.74216e+01  1.41959e+01  4.34921e+00
       C  9.20160e+00  2.21086e+01  1.63741e+00
       O  1.02619e+01  2.17682e+01  1.30461e+00
       O  8.13563e+00  2.24253e+01  1.97847e+00
       C  1.44119e+01  4.45509e+00  1.58725e+01
       O  1.45016e+01  3.31316e+00  1.60672e+01
       O  1.43266e+01  5.59957e+00  1.56825e+01
       C  2.72582e+01  2.78307e+01  4.99227e+00
       O  2.72092e+01  2.89267e+01  5.37530e+00
       O  2.72809e+01  2.67259e+01  4.62908e+00
       C  9.76087e+00  1.81221e+01  9.06404e+00
       O  9.04787e+00  1.88933e+01  9.56356e+00
       O  1.04701e+01  1.73515e+01  8.55887e+00
       C  1.73941e+01  8.69486e-01  2.69228e+01
       O  1.80626e+01  1.12067e+00  2.60042e+01
       O  1.67251e+01  6.37364e-01  2.78449e+01
       C  1.12768e+01  8.46125e+00  8.34765e+00
       O  1.21380e+01  9.23501e+00  8.23991e+00
       O  1.04176e+01  7.68493e+00  8.45044e+00
       C  2.82199e+01  1.99812e+01  2.05720e+01
       O  2.79717e+01  1.98524e+01  2.17007e+01
       O  2.84657e+01  2.01108e+01  1.94423e+01
       C  1.56087e+01  6.87952e+00  2.98761e+01
       O  1.62123e+01  5.89881e+00  2.97129e+01
       O  1.50244e+01  7.87414e+00  3.00245e+01
       C  2.47880e+01  4.70379e+00  1.14635e+01
       O  2.52095e+01  5.47576e+00  1.07022e+01
       O  2.43599e+01  3.94473e+00  1.22336e+01
       C  5.02193e+00  2.91255e+01 -3.78788e-02
       O  4.50712e+00  3.00957e+01  3.43755e-01
       O  5.53840e+00  2.81544e+01 -4.16901e-01
       C  1.74002e+01  1.06096e+01  9.73147e+00
       O  1.71460e+01  1.17446e+01  9.70999e+00
       O  1.76483e+01  9.47456e+00  9.76529e+00
       C  1.54778e+01  9.52576e+00  2.33842e+01
       O  1.55679e+01  8.71019e+00  2.25590e+01
       O  1.53649e+01  1.03416e+01  2.42046e+01
       C  2.88750e+01  6.01068e+00  2.92794e+01
       O  2.98184e+01  5.34384e+00  2.94156e+01
       O  2.79376e+01  6.68458e+00  2.91430e+01
       C  1.34327e+01  1.33763e+01  1.91583e+01
       O  1.23107e+01  1.36301e+01  1.93291e+01
       O  1.45562e+01  1.31246e+01  1.89940e+01
       C  1.63626e+01  2.88203e+01  3.08788e+01
       O  1.60044e+01  2.79241e+01  3.02289e+01
       O  1.67157e+01  2.97196e+01  3.15250e+01
       C  1.80196e+01  2.57119e+01  1.21775e+01
       O  1.73148e+01  2.50463e+01  1.15374e+01
       O  1.87268e+01  2.63744e+01  1.28218e+01
       C  1.18767e+01  1.10099e+01  2.89233e+01
       O  1.13659e+01  1.20538e+01  2.88916e+01
       O  1.23949e+01  9.96853e+00  2.89452e+01
       C  4.06532e+00  1.66627e+01  1.93053e+01
       O  4.01182e+00  1.55160e+01  1.94885e+01
       O  4.11727e+00  1.78093e+01  1.91154e+01
       C  1.70065e+01  1.37240e+01  2.53223e+01
       O  1.70827e+01  1.47209e+01  2.47291e+01
       O  1.69445e+01  1.27284e+01  2.59192e+01
       C  1.16047e+01  2.16653e+01  1.96151e+01
       O  1.11120e+01  2.22116e+01  2.05111e+01
       O  1.21075e+01  2.11321e+01  1.87063e+01
       C  1.80252e+01  1.83538e+01  2.06029e+01
       O  1.88042e+01  1.90361e+01  2.11317e+01
       O  1.72527e+01  1.76497e+01  2.00916e+01
       C  2.21340e+01  9.21451e+00  2.73995e+01
       O  2.30907e+01  9.02720e+00  2.80318e+01
       O  2.11680e+01  9.38966e+00  2.67761e+01
       C  2.14260e+01  5.13675e+00  6.21316e+00
       O  2.21272e+01  5.34955e+00  5.30935e+00
       O  2.07178e+01  4.92467e+00  7.10817e+00
       C  1.70346e+01  2.93777e+01  1.19011e+01
       O  1.65083e+01  2.83640e+01  1.16842e+01
       O  1.75670e+01  3.03880e+01  1.21211e+01
       C  1.05379e+01  1.91810e+01  2.85141e+01
       O  9.95761e+00  1.81926e+01  2.83168e+01
       O  1.11242e+01  2.01649e+01  2.87189e+01
       C  2.13713e+01  2.37658e+01  4.49615e+00
       O  2.14833e+01  2.47813e+01  3.93987e+00
       O  2.12780e+01  2.27550e+01  5.06186e+00
       C  6.77604e+00  2.95228e+01  1.91341e+01
       O  7.90340e+00  2.96331e+01  1.88719e+01
       O  5.64883e+00  2.94185e+01  1.94009e+01
       C  2.09169e+01  2.08062e+01  1.99379e+01
       O  2.03323e+01  2.08044e+01  1.89329e+01
       O  2.15137e+01  2.08098e+01  2.09362e+01
       C  2.55310e+01  2.93185e+01  1.63132e+00
       O  2.50531e+01  3.01445e+01  9.66693e-01
       O  2.59873e+01  2.84916e+01  2.31050e+00
       C  1.50436e+01  3.25021e+00  2.81452e+01
       O  1.46101e+01  3.09890e+00  2.92132e+01
       O  1.54730e+01  3.39988e+00  2.70746e+01
       C  1.29021e+00  1.35395e+01  1.25972e+00
       O  2.25963e+00  1.41329e+01  1.01617e+00
       O  3.23578e-01  1.29417e+01  1.50772e+00
       C  3.28389e+00  2.55595e+01  2.05296e+01
       O  3.07687e+00  2.48451e+01  2.14235e+01
       O  3.49513e+00  2.62703e+01  1.96340e+01
       C  1.70568e+01  2.38532e+01  6.72729e+00
       O  1.62039e+01  2.43035e+01  7.37806e+00
       O  1.79020e+01  2.33952e+01  6.07207e+00
       C  1.24646e+01  2.52445e+01  1.30599e+00
       O  1.13629e+01  2.49618e+01  1.05855e+00
       O  1.35712e+01  2.55103e+01  1.54257e+00
       C  2.13287e+01  2.71418e+01  2.02508e+00
       O  2.02043e+01  2.68655e+01  1.90789e+00
       O  2.24493e+01  2.74234e+01  2.15059e+00
       C  3.53212e+00  2.92234e+01  4.20920e+00
       O  2.99489e+00  2.85491e+01  3.42884e+00
       O  4.07607e+00  2.98922e+01  4.98953e+00
       C  2.80215e+01  7.43391e+00  5.55640e+00
       O  2.79477e+01  7.59769e+00  4.40748e+00
       O  2.80908e+01  7.28334e+00  6.70763e+00
       C  1.50350e+01  6.09311e+00  2.10462e+01
       O  1.41807e+01  5.78237e+00  2.17716e+01
       O  1.58987e+01  6.40320e+00  2.03321e+01
       C  1.21823e+01  1.47854e+01  3.00899e+01
       O  1.22458e+01  1.44277e+01  3.11952e+01
       O  1.21122e+01  1.51415e+01  2.89857e+01
       C  2.58467e+01  5.67677e+00  2.36618e+00
       O  2.54275e+01  6.65667e+00  1.90165e+00
       O  2.62682e+01  4.69615e+00  2.82790e+00
       C  2.83721e+01  2.62632e+01  1.57131e+00
       O  2.74471e+01  2.58141e+01  1.02750e+00
       O  2.92947e+01  2.67171e+01  2.11350e+00
       C  2.77033e+00  2.27511e+01  1.36572e+01
       O  3.29327e+00  2.37872e+01  1.37229e+01
       O  2.24737e+00  2.17163e+01  1.35735e+01
       C  2.17682e+01  1.24915e+01  2.61764e+01
       O  2.08930e+01  1.28428e+01  2.55033e+01
       O  2.26589e+01  1.21527e+01  2.68512e+01
       C  1.58091e+01  5.24614e+00  2.69718e+00
       O  1.56070e+01  4.17838e+00  3.10995e+00
       O  1.60180e+01  6.31390e+00  2.28577e+00
       C  1.65067e+01  1.17127e+01  1.28898e+01
       O  1.58834e+01  1.26872e+01  1.30082e+01
       O  1.71168e+01  1.07325e+01  1.27519e+01
       C  2.48648e+01  1.40859e+01  1.97641e+01
       O  2.55349e+01  1.48511e+01  1.92011e+01
       O  2.41979e+01  1.33251e+01  2.03362e+01
       C  2.58909e+01  1.84615e+01  1.12263e+01
       O  2.52783e+01  1.81212e+01  1.02979e+01
       O  2.65122e+01  1.87966e+01  1.21501e+01
       C  2.05510e+01  2.07602e+00  8.85884e+00
       O  2.16659e+01  2.40191e+00  8.91384e+00
       O  1.94384e+01  1.74339e+00  8.79735e+00
       C  5.09667e+00  2.50555e+01  1.06708e+01
       O  4.16729e+00  2.57041e+01  1.04138e+01
       O  6.02690e+00  2.44076e+01  1.09332e+01
       C  2.93047e+01  2.71799e+01  1.41016e+01
       O  3.02633e+01  2.74482e+01  1.47038e+01
       O  2.83491e+01  2.69194e+01  1.34934e+01
       C  1.17055e+01  1.45559e+01  8.33744e+00
       O  1.26098e+01  1.50724e+01  7.82033e+00
       O  1.08007e+01  1.40396e+01  8.85654e+00
       C  9.49786e-01  2.21855e+00  3.07335e+00
       O  4.11777e-01  3.08263e+00  2.51103e+00
       O  1.49131e+00  1.35577e+00  3.63349e+00
       C  8.46229e+00  2.35627e+01  2.05138e+01
       O  7.98815e+00  2.25519e+01  2.08414e+01
       O  8.94135e+00  2.45727e+01  2.01950e+01
       C  9.15860e+00  2.76688e+01  2.09706e+01
       O  8.02423e+00  2.75466e+01  2.11941e+01
       O  1.02968e+01  2.77877e+01  2.07640e+01
       C  2.24225e+01  1.36721e+01  1.68342e+01
       O  2.12954e+01  1.38017e+01  1.65776e+01
       O  2.35484e+01  1.35221e+01  1.70847e+01
       C  1.21568e+01  1.37423e+01  1.38139e+01
       O  1.18246e+01  1.41330e+01  1.27709e+01
       O  1.25003e+01  1.33533e+01  1.48549e+01
       C  1.51566e+01  2.63607e+01  9.38569e+00
       O  1.58163e+01  2.70845e+01  8.75888e+00
       O  1.44979e+01  2.56361e+01  1.00122e+01
       C  1.86029e+01  2.45084e+01  2.91893e+01
       O  1.85877e+01  2.55857e+01  2.87485e+01
       O  1.86313e+01  2.34436e+01  2.96533e+01
       C  9.18473e+00  2.92750e+00  5.24908e+00
       O  9.80838e+00  1.94681e+00  5.27123e+00
       O  8.55816e+00  3.90684e+00  5.22714e+00
       C  1.83081e+01  1.85984e+01  1.33222e+01
       O  1.82197e+01  1.88479e+01  1.21896e+01
       O  1.83921e+01  1.83565e+01  1.44571e+01
       C  2.93906e+01  1.68507e+01  2.95191e+01
       O  2.92736e+01  1.57303e+01  2.92303e+01
       O  2.95138e+01  1.79723e+01  2.98020e+01
       C  2.57050e+01  2.95954e+01  2.70533e+01
       O  2.46507e+01  2.91409e+01  2.68701e+01
       O  2.67576e+01  3.00518e+01  2.72410e+01
       C  2.00022e+00  2.32812e+01  1.75378e+01
       O  2.36191e+00  2.34770e+01  1.86259e+01
       O  1.64567e+00  2.30861e+01  1.64481e+01
       C  2.94527e+01  2.41854e+01  1.64308e+01
       O  2.94471e+01  2.44471e+01  1.52982e+01
       O  2.94574e+01  2.39299e+01  1.75657e+01
       C  2.67219e+01  1.29875e+01  1.71678e+01
       O  2.67876e+01  1.37659e+01  1.63071e+01
       O  2.66475e+01  1.22074e+01  1.80267e+01
       C  1.94046e+01  7.33376e+00  8.33867e+00
       O  1.87222e+01  7.30774e+00  7.39779e+00
       O  2.00886e+01  7.36268e+00  9.27912e+00
       C  8.97767e+00  2.97630e+01  2.89325e+01
       O  1.01308e+01  2.96298e+01  2.89930e+01
       O  7.82481e+00  2.99019e+01  2.88672e+01
       C  2.24378e+01  1.35464e+01  4.81412e+00
       O  2.25170e+01  1.35515e+01  3.65410e+00
       O  2.23529e+01  1.35387e+01  5.97389e+00
       C  1.32734e+01  2.23146e+01  2.37297e+01
       O  1.33738e+01  2.33158e+01  2.31476e+01
       O  1.31998e+01  2.13088e+01  2.43084e+01
       C  1.50065e+01  9.50028e+00  2.72977e+01
       O  1.46431e+01  8.44667e+00  2.69656e+01
       O  1.53720e+01  1.05475e+01  2.76432e+01
       C  9.70342e+00  2.53399e+01  1.56309e+01
       O  8.76625e+00  2.50668e+01  1.62625e+01
       O  1.06438e+01  2.55917e+01  1.49942e+01
       C  1.17828e+01  9.50295e+00  2.40312e+01
       O  1.26063e+01  8.80011e+00  2.44534e+01
       O  1.09735e+01  1.02108e+01  2.35882e+01
       C  1.95133e+01  3.69361e+00  3.53613e+00
       O  2.02130e+01  2.99479e+00  4.14800e+00
       O  1.88233e+01  4.39201e+00  2.91372e+00
       C  3.10221e+00  1.23382e+01  2.30405e+01
       O  3.19130e+00  1.12148e+01  2.33266e+01
       O  3.01180e+00  1.34644e+01  2.27674e+01
       C  2.83134e+01  1.58628e+01  1.96478e+01
       O  2.79910e+01  1.68058e+01  2.02484e+01
       O  2.86375e+01  1.49143e+01  1.90581e+01
       C  1.14582e+01  2.08525e+01  1.04178e+01
       O  1.09582e+01  2.19008e+01  1.04809e+01
       O  1.19517e+01  1.98021e+01  1.03437e+01
       C  1.84211e+01  1.20829e+01  1.91729e+00
       O  1.83602e+01  1.29581e+01  1.15672e+00
       O  1.84844e+01  1.12163e+01  2.69142e+00
       C  1.03277e+01  2.80804e+01  2.12747e+00
       O  9.35557e+00  2.84723e+01  1.62299e+00
       O  1.12950e+01  2.76931e+01  2.64206e+00
       C  2.50240e+01  1.25623e+01  1.42668e+01
       O  2.51630e+01  1.34676e+01  1.35511e+01
       O  2.48886e+01  1.16454e+01  1.49690e+01
       C  1.53346e+01  2.62466e+01  2.00745e+01
       O  1.44765e+01  2.70093e+01  1.98855e+01
       O  1.61782e+01  2.54657e+01  2.02591e+01
       C  4.51367e+00  2.07448e+01  1.64039e+01
       O  4.53292e+00  1.96429e+01  1.60340e+01
       O  4.49883e+00  2.18490e+01  1.67676e+01
       C  2.26049e+01  1.59871e+00  6.20128e+00
       O  2.16375e+01  9.54059e-01  6.15555e+00
       O  2.35709e+01  2.24361e+00  6.23689e+00
       C  1.80491e+01  1.26138e+01  2.85952e+01
       O  1.72533e+01  1.34114e+01  2.88825e+01
       O  1.88472e+01  1.18170e+01  2.83125e+01
       C  1.34963e+01  1.25113e+01  2.54805e+01
       O  1.40599e+01  1.33690e+01  2.49347e+01
       O  1.29383e+01  1.16516e+01  2.60306e+01
       C  5.23647e+00  2.86821e+01  2.24230e+01
       O  4.48282e+00  2.78016e+01  2.23278e+01
       O  5.98915e+00  2.95644e+01  2.25110e+01
       C  5.43342e+00  2.17150e+01  3.30455e+00
       O  5.63688e+00  2.06114e+01  2.99877e+00
       O  5.23624e+00  2.28198e+01  3.60939e+00
       C  9.51232e+00  7.79470e+00  1.70133e+01
       O  8.83856e+00  6.94983e+00  1.65828e+01
       O  1.01890e+01  8.64104e+00  1.74334e+01
       C  4.32405e+00  2.87043e+01  1.01642e+01
       O  5.35226e+00  2.86513e+01  1.07048e+01
       O  3.29586e+00  2.87586e+01  9.62410e+00
       C  1.15244e+00  3.20738e+00  3.01509e+01
       O  3.20821e-01  2.39988e+00  3.00598e+01
       O  1.98818e+00  4.00858e+00  3.02537e+01
       C  1.51924e+01  1.27816e+01  1.59324e+01
       O  1.53695e+01  1.39261e+01  1.60395e+01
       O  1.50147e+01  1.16387e+01  1.58086e+01
       C  1.43678e+01  1.98038e+01  2.16822e+01
       O  1.54659e+01  1.94593e+01  2.18432e+01
       O  1.32753e+01  2.01662e+01  2.15166e+01
       C  1.89421e+01  3.04686e+01  4.07832e+00
       O  1.94789e+01  3.01827e+01  3.08734e+00
       O  1.83994e+01  3.07617e+01  5.06363e+00
       C  9.47675e+00  1.40206e+01  1.71761e+01
       O  9.09456e+00  1.51099e+01  1.70377e+01
       O  9.84604e+00  1.29291e+01  1.73317e+01
       C  2.16209e+01  4.49094e+00  2.10604e+01
       O  2.20532e+01  5.44097e+00  2.15742e+01
       O  2.11858e+01  3.53985e+00  2.05528e+01
       C  1.10706e+01  6.18457e+00  2.18337e+01
       O  1.09744e+01  7.24757e+00  2.22943e+01
       O  1.11645e+01  5.11589e+00  2.13873e+01
       C  1.16865e+01  2.52060e+01  2.15789e+01
       O  1.23390e+01  2.50837e+01  2.06238e+01
       O  1.10413e+01  2.53179e+01  2.25436e+01
       C  1.34207e+01  8.05958e-01  1.38367e+01
       O  1.39435e+01 -2.08046e-01  1.40626e+01
       O  1.28952e+01  1.82067e+00  1.36181e+01
       C  8.66715e+00  3.61505e+00  1.90361e+01
       O  8.32774e+00  4.56408e+00  1.96151e+01
       O  9.00860e+00  2.67098e+00  1.84486e+01
       C  1.68370e+01  1.57256e+01  1.23051e+00
       O  1.77928e+01  1.60120e+01  1.85024e+00
       O  1.58850e+01  1.54399e+01  6.55181e-01
       C  9.41264e+00  6.54851e+00  2.47550e+01
       O  9.10891e+00  7.66152e+00  2.48961e+01
       O  9.72244e+00  5.43710e+00  2.46012e+01
       C  1.25575e+01  4.69074e+00  3.07247e+01
       O  1.34145e+01  5.24020e+00  3.12869e+01
       O  1.16932e+01  4.14445e+00  3.01703e+01
       C  1.97449e+01  2.56759e+01  2.51373e+01
       O  2.08436e+01  2.54479e+01  2.48309e+01
       O  1.86484e+01  2.58904e+01  2.54568e+01
       C  5.00288e+00  3.71876e+00  3.10727e+00
       O  4.65872e+00  2.61849e+00  3.25512e+00
       O  5.34709e+00  4.81958e+00  2.96031e+00
       C  1.94752e+01  2.20997e+01  9.92459e+00
       O  1.86366e+01  2.26600e+01  9.34462e+00
       O  2.03031e+01  2.15376e+01  1.05162e+01
       C  9.28040e+00  1.52026e+01  2.77071e+01
       O  9.62767e+00  1.53869e+01  2.66126e+01
       O  8.93555e+00  1.49998e+01  2.87999e+01
       C  6.68351e+00  2.69939e+01  2.15749e+00
       O  6.03217e+00  2.78716e+01  2.55245e+00
       O  7.32186e+00  2.61099e+01  1.75081e+00
       C  1.55148e+01  2.81277e+01  1.55247e+01
       O  1.64346e+01  2.84698e+01  1.49013e+01
       O  1.45932e+01  2.77821e+01  1.61436e+01
       C  1.17591e+00  9.33361e+00  2.16965e+01
       O  5.54802e-01  1.02831e+01  2.14443e+01
       O  1.79311e+00  8.37989e+00  2.19445e+01
       C  6.49269e+00  2.78886e+01  2.71069e+01
       O  5.45852e+00  2.84090e+01  2.69976e+01
       O  7.52487e+00  2.73644e+01  2.72207e+01
       C  9.91247e+00  1.74260e+01  2.44931e+01
       O  1.08725e+01  1.68859e+01  2.41202e+01
       O  8.95494e+00  1.79733e+01  2.48621e+01
       C  1.83207e+01  2.99685e+01  1.69990e+01
       O  1.78435e+01  3.08704e+01  1.64418e+01
       O  1.87789e+01  2.90669e+01  1.75736e+01
       C  2.46764e+01  8.77083e+00  2.52283e+01
       O  2.51611e+01  7.71669e+00  2.53077e+01
       O  2.41763e+01  9.81837e+00  2.51527e+01
       C  3.08960e+00  1.53211e+01  1.01325e+01
       O  2.55622e+00  1.63534e+01  1.01713e+01
       O  3.62153e+00  1.42876e+01  1.00911e+01
       C  1.17056e+00  1.90598e+01  2.75891e+01
       O  1.57503e+00  2.01244e+01  2.78214e+01
       O  7.63947e-01  1.79915e+01  2.73785e+01
       C  1.06628e+01  3.05541e+01  1.96514e+01
       O  1.11038e+01  3.01774e+01  1.86447e+01
       O  1.02318e+01  3.09438e+01  2.06590e+01
       C  1.23858e+00  1.29384e+01  7.67423e+00
       O  1.50032e+00  1.21314e+01  6.87935e+00
       O  9.82087e-01  1.37419e+01  8.47453e+00
       C  2.04839e+01  2.62768e+01  1.56744e+01
       O  2.10086e+01  2.72852e+01  1.59207e+01
       O  1.99633e+01  2.52638e+01  1.54442e+01
       C  8.21097e+00  5.09007e+00  1.10652e+00
       O  8.25461e+00  4.07552e+00  1.67304e+00
       O  8.16987e+00  6.10768e+00  5.45792e-01
       C  1.26621e+01  1.83937e+01  6.69165e+00
       O  1.22675e+01  1.77559e+01  5.80439e+00
       O  1.30415e+01  1.90421e+01  7.58027e+00
       C  1.56232e+01  1.58381e+01  1.34162e+01
       O  1.67835e+01  1.58971e+01  1.33628e+01
       O  1.44636e+01  1.57657e+01  1.34713e+01
       C  2.95274e+00  9.28256e+00  1.14431e+01
       O  1.98960e+00  9.84354e+00  1.17761e+01
       O  3.91881e+00  8.71946e+00  1.11247e+01
       C  1.25161e+01  1.60055e+01  2.17594e+01
       O  1.26742e+01  1.70688e+01  2.13141e+01
       O  1.23634e+01  1.49380e+01  2.21965e+01
       C  1.07748e+01  1.84379e+01  1.89859e+01
       O  1.00336e+01  1.90224e+01  1.96658e+01
       O  1.15134e+01  1.78593e+01  1.82999e+01
       C  2.95179e+01  2.90738e+01  2.80014e+01
       O  2.90089e+01  2.82326e+01  2.86227e+01
       O  3.00271e+01  2.99101e+01  2.73751e+01
       C  2.73413e+01  3.98179e+00  1.79426e+01
       O  2.70625e+01  3.76466e+00  1.90504e+01
       O  2.76196e+01  4.18069e+00  1.68308e+01
       C  2.11570e+01  1.29041e+01  3.01765e+01
       O  2.10888e+01  1.36362e+01  2.92749e+01
       O  2.12019e+01  1.21555e+01  3.10646e+01
       C  1.93920e+01  9.74010e+00  2.19939e+01
       O  1.98396e+01  1.05048e+01  2.12415e+01
       O  1.89471e+01  8.97304e+00  2.27452e+01
       C  2.33363e+01  2.83152e+01  1.43808e+01
       O  2.40677e+01  2.81861e+01  1.52756e+01
       O  2.26127e+01  2.84394e+01  1.34791e+01
       C  2.73342e+01  1.53528e+01  1.26160e+01
       O  2.80083e+01  1.51176e+01  1.35333e+01
       O  2.66589e+01  1.55933e+01  1.16998e+01
       C  7.87945e+00  1.84587e+01  2.18630e+01
       O  8.47586e+00  1.74684e+01  2.19850e+01
       O  7.29062e+00  1.94536e+01  2.17453e+01
       C  1.02897e+01  1.12793e+01  2.07964e+01
       O  1.07806e+01  1.03342e+01  2.03310e+01
       O  9.80318e+00  1.22245e+01  2.12674e+01
       C  2.39085e+01  2.44137e+01  2.96344e+01
       O  2.37769e+01  2.34990e+01  2.89276e+01
       O  2.40590e+01  2.53212e+01  3.03456e+01
       C  1.64904e+01  8.22130e+00  5.33481e+00
       O  1.68971e+01  9.30759e+00  5.26306e+00
       O  1.60852e+01  7.13239e+00  5.40011e+00
       C  2.20800e+01  1.68168e+01  1.92739e+01
       O  2.16030e+01  1.78453e+01  1.95332e+01
       O  2.25605e+01  1.57923e+01  1.90071e+01
       C  1.48157e+01  2.45840e+01  2.84921e+01
       O  1.57768e+01  2.39828e+01  2.82316e+01
       O  1.38517e+01  2.51692e+01  2.87775e+01
       C  2.54734e+01  1.36772e+01  2.68645e+00
       O  2.53770e+01  1.39706e+01  1.56473e+00
       O  2.55753e+01  1.33813e+01  3.80640e+00
       C  5.41642e+00  6.74870e+00  6.49221e+00
       O  4.83607e+00  5.78563e+00  6.19462e+00
       O  5.99999e+00  7.71162e+00  6.78067e+00
       C  9.43451e+00  1.11208e+01  1.70096e+00
       O  1.03531e+01  1.06842e+01  1.13747e+00
       O  8.52014e+00  1.15524e+01  2.27589e+00
       C  2.41415e+01  2.99969e+01  2.39258e+01
       O  2.30079e+01  3.02523e+01  2.39560e+01
       O  2.52780e+01  2.97544e+01  2.38967e+01
       C  2.66301e+00  6.11796e+00  4.12416e+00
       O  2.91414e+00  7.24998e+00  4.21396e+00
       O  2.42450e+00  4.98283e+00  4.04752e+00
       C  2.50645e+01  3.58586e+00  2.97145e+01
       O  2.54407e+01  3.57915e+00  2.86144e+01
       O  2.46867e+01  3.58274e+00  3.08145e+01
       C  2.69020e+01  1.23230e+01  8.19245e+00
       O  2.77823e+01  1.30816e+01  8.16527e+00
       O  2.60347e+01  1.15492e+01  8.23088e+00