2594
# CELL(abcABC):   72.86960    72.86960    72.86960    90.00000    90.00000    90.00000  Step:         300  Bead:       0 x_centroid{angstrom}  cell{atomic_unit}
       C  3.18540e+01  9.65151e+00  3.51461e+01
       O  3.07249e+01  9.50442e+00  3.53832e+01
       O  3.29779e+01  9.79668e+00  3.48887e+01
       C  3.51693e+01  1.43580e+01  2.78057e+01
       O  3.59696e+01  1.36882e+01  2.72912e+01
       O  3.43699e+01  1.50347e+01  2.83104e+01
       C  2.56178e+01  7.20105e+00  2.62968e+01
       O  2.58722e+01  8.32450e+00  2.61383e+01
       O  2.53837e+01  6.07463e+00  2.64612e+01
       C  2.91580e+01  2.68848e+01  1.14221e+01
       O  2.83891e+01  2.60924e+01  1.10584e+01
       O  2.99190e+01  2.76815e+01  1.17961e+01
       C  3.93817e+00 -1.59428e-01  9.36880e+00
       O  4.68551e+00 -6.03310e-01  8.59701e+00
       O  3.19484e+00  2.97269e-01  1.01372e+01
       C  1.58103e+01  2.82456e+01  2.72195e+01
       O  1.56583e+01  2.70921e+01  2.72117e+01
       O  1.59791e+01  2.93966e+01  2.72200e+01
       C  3.30714e+01  2.79955e+01  9.70158e+00
       O  3.41310e+01  2.79808e+01  1.01801e+01
       O  3.20111e+01  2.80080e+01  9.22293e+00
       C  2.28628e+01  3.14865e+01  3.33725e+01
       O  2.23405e+01  3.04482e+01  3.33878e+01
       O  2.33946e+01  3.25196e+01  3.33482e+01
       C  1.42135e+01  1.25115e+01  3.42385e+01
       O  1.41597e+01  1.25122e+01  3.54003e+01
       O  1.42638e+01  1.25205e+01  3.30774e+01
       C  1.05031e+01  2.69107e+01  1.48330e+01
       O  9.36788e+00  2.70667e+01  1.46322e+01
       O  1.16431e+01  2.67560e+01  1.50058e+01
       C  1.27437e+01  9.41221e-02  1.02253e+01
       O  1.21459e+01 -2.93761e-01  9.30771e+00
       O  1.33510e+01  4.82413e-01  1.11384e+01
       C  3.09879e+01  3.27677e+01  2.72397e+01
       O  3.20032e+01  3.31411e+01  2.76654e+01
       O  2.99728e+01  3.23946e+01  2.68122e+01
       C  5.09495e+00  7.38935e+00  2.63488e+01
       O  5.70836e+00  8.34029e+00  2.60835e+01
       O  4.48590e+00  6.43723e+00  2.66242e+01
       C  1.03056e+01  3.40020e+01  4.80955e+00
       O  1.05740e+01  3.50168e+01  4.31304e+00
       O  1.00305e+01  3.29803e+01  5.29397e+00
       C  2.88294e+01  6.29784e+00  2.50240e+01
       O  2.96191e+01  5.90486e+00  2.57808e+01
       O  2.80355e+01  6.69623e+00  2.42742e+01
       C  3.24821e+01  1.29378e+01  3.83652e+01
       O  3.23955e+01  1.34629e+01  3.93990e+01
       O  3.25695e+01  1.24054e+01  3.73348e+01
       C  3.08322e+00  6.21263e+00  1.96150e+01
       O  3.96408e+00  5.62851e+00  2.01009e+01
       O  2.20402e+00  6.79871e+00  1.91303e+01
       C  1.82172e+00  1.48813e+01  1.32832e+01
       O  7.60996e-01  1.52864e+01  1.35343e+01
       O  2.87911e+00  1.44661e+01  1.30313e+01
       C  2.63778e+01  1.75006e+01  1.09712e+01
       O  2.67647e+01  1.78631e+01  9.93624e+00
       O  2.60005e+01  1.71480e+01  1.20141e+01
       C  1.75109e+01  7.67997e+00  3.20809e+01
       O  1.70157e+01  7.79508e+00  3.10355e+01
       O  1.80180e+01  7.57864e+00  3.31217e+01
       C  3.41481e+01  1.74995e+01  3.45377e+01
       O  3.51788e+01  1.74393e+01  3.50727e+01
       O  3.31103e+01  1.75789e+01  3.40200e+01
       C  2.75272e+01  4.43442e+00  1.87482e+01
       O  2.79373e+01  3.55714e+00  1.93915e+01
       O  2.71215e+01  5.31670e+00  1.81086e+01
       C  2.36174e+01  1.57778e+01  2.41969e+01
       O  2.29624e+01  1.52343e+01  2.34050e+01
       O  2.42687e+01  1.63286e+01  2.49867e+01
       C  2.65139e+01  1.23907e+01  1.26502e+01
       O  2.59934e+01  1.13630e+01  1.24899e+01
       O  2.70265e+01  1.34212e+01  1.28122e+01
       C  3.71635e+00  2.51150e+01  1.08666e+01
       O  4.04417e+00  2.42618e+01  1.01473e+01
       O  3.38365e+00  2.59593e+01  1.15942e+01
       C  1.87941e+01  2.84809e+01  3.49275e+01
       O  1.93150e+01  2.93900e+01  3.44230e+01
       O  1.82684e+01  2.75798e+01  3.54398e+01
       C  1.30267e+01  1.21303e+01  1.34695e+01
       O  1.22351e+01  1.20883e+01  1.43202e+01
       O  1.38267e+01  1.21638e+01  1.26268e+01
       C  3.37269e+01  1.71667e+01  3.05121e+00
       O  3.36536e+01  1.66509e+01  2.01187e+00
       O  3.37989e+01  1.76822e+01  4.09099e+00
       C  2.21420e+01  3.27470e+01  2.42825e+01
       O  2.31506e+01  3.32655e+01  2.45387e+01
       O  2.11303e+01  3.22298e+01  2.40348e+01
       C  3.68422e+01  2.74598e+01  3.78965e+01
       O  3.63373e+01  2.79212e+01  3.69565e+01
       O  3.73461e+01  2.70014e+01  3.88378e+01
       C  7.95517e+00  2.01235e+01  2.42954e+01
       O  8.10877e+00  1.93735e+01  2.34194e+01
       O  7.80278e+00  2.08697e+01  2.51734e+01
       C  1.72769e+01  1.96492e+01  6.99098e+00
       O  1.65443e+01  1.94558e+01  7.87367e+00
       O  1.80118e+01  1.98516e+01  6.11320e+00
       C  1.50327e-01  2.60655e+01  2.65052e+01
       O -5.63686e-01  2.63662e+01  2.56386e+01
       O  8.67452e-01  2.57674e+01  2.73702e+01
       C  1.68277e+01  3.58830e+01  2.40742e+01
       O  1.64186e+01  3.64152e+01  2.50235e+01
       O  1.72425e+01  3.53721e+01  2.31149e+01
       C  3.61337e+01  1.87461e+01  3.07239e+01
       O  3.70420e+01  1.84895e+01  3.00438e+01
       O  3.52272e+01  1.90066e+01  3.14034e+01
       C  2.03901e+01  1.69196e+01  2.54331e+01
       O  2.12078e+01  1.73256e+01  2.47129e+01
       O  1.95699e+01  1.65073e+01  2.61473e+01
       C  1.37290e+01  6.40609e+00  2.92223e+01
       O  1.41526e+01  7.21233e+00  2.84996e+01
       O  1.33028e+01  5.60186e+00  2.99464e+01
       C  5.63769e+00  3.87101e+00  6.22275e+00
       O  5.76457e+00  4.82702e+00  5.57348e+00
       O  5.50764e+00  2.91294e+00  6.86848e+00
       C  3.07288e+01  9.72305e+00  2.62016e+01
       O  2.98919e+01  9.14128e+00  2.56414e+01
       O  3.15653e+01  1.03015e+01  2.67639e+01
       C  2.40404e+01  3.58098e+01  2.66633e+01
       O  2.51801e+01  3.58136e+01  2.68971e+01
       O  2.29021e+01  3.58170e+01  2.64259e+01
       C  1.47220e+01  1.76725e+01  2.34386e+01
       O  1.36803e+01  1.75287e+01  2.39333e+01
       O  1.57648e+01  1.78239e+01  2.29468e+01
       C  9.78036e+00  3.99333e+00  3.83041e+01
       O  1.03084e+01  2.95683e+00  3.83201e+01
       O  9.24176e+00  5.02373e+00  3.82806e+01
       C  1.49301e+01  3.28834e+01  3.19766e+01
       O  1.56130e+01  3.24772e+01  3.11285e+01
       O  1.42478e+01  3.33079e+01  3.28166e+01
       C  4.72905e+00  2.70896e+01  3.66944e+01
       O  5.48561e+00  2.65240e+01  3.60146e+01
       O  3.97243e+00  2.76541e+01  3.73729e+01
       C  3.75188e+01  2.33035e+01  1.47223e+01
       O  3.68606e+01  2.23481e+01  1.46442e+01
       O  3.81747e+01  2.42595e+01  1.48010e+01
       C  2.39431e+01  1.04422e+01  2.56955e+01
       O  2.37791e+01  1.07100e+01  2.68177e+01
       O  2.40979e+01  1.01844e+01  2.45717e+01
       C  2.07985e+01  2.11556e+01  2.94527e+01
       O  2.10183e+01  2.22946e+01  2.93693e+01
       O  2.05694e+01  2.00190e+01  2.95331e+01
       C  3.72498e+01  2.45366e+01  1.07551e+01
       O  3.70528e+01  2.38272e+01  1.16550e+01
       O  3.74603e+01  2.52448e+01  9.85684e+00
       C  1.27084e+01  1.15642e+00 -1.77215e-03
       O  1.34005e+01  2.05201e+00  2.67535e-01
       O  1.20164e+01  2.59270e-01 -2.63704e-01
       C  8.72458e+00  1.41228e+01  2.19165e+01
       O  8.49429e+00  1.51121e+01  2.13493e+01
       O  8.95683e+00  1.31344e+01  2.24816e+01
       C  1.97995e+01  2.79670e+01  1.79886e+01
       O  1.97794e+01  2.89945e+01  1.85330e+01
       O  1.98281e+01  2.69385e+01  1.74463e+01
       C  1.02977e+01  4.34867e+00  2.02668e+01
       O  9.75299e+00  3.57261e+00  2.09394e+01
       O  1.08169e+01  5.13423e+00  1.95839e+01
       C  3.84079e+01  3.55499e+01  1.92657e+01
       O  3.87238e+01  3.45865e+01  1.98339e+01
       O  3.80788e+01  3.65116e+01  1.87018e+01
       C  2.02877e+01  2.92477e+01  2.38516e+01
       O  2.09711e+01  2.91787e+01  2.47909e+01
       O  1.96068e+01  2.93004e+01  2.29112e+01
       C  3.61120e+01  3.62588e+01  1.46917e+00
       O  3.64725e+01  3.70283e+01  6.76814e-01
       O  3.57496e+01  3.54894e+01  2.26129e+00
       C  1.05787e+01  2.99679e+01  3.75507e+01
       O  9.84863e+00  3.05160e+01  3.82723e+01
       O  1.13025e+01  2.94133e+01  3.68296e+01
       C  3.29304e+00  1.39826e+01  2.51996e+01
       O  3.43701e+00  1.35999e+01  2.41107e+01
       O  3.14119e+00  1.43584e+01  2.62902e+01
       C  3.41120e+01  3.53333e+00  3.36568e+01
       O  3.43167e+01  3.82173e+00  3.25491e+01
       O  3.39004e+01  3.24316e+00  3.47626e+01
       C  3.11227e+01  1.72726e+01  1.75428e+01
       O  3.22479e+01  1.70663e+01  1.77469e+01
       O  2.99936e+01  1.74786e+01  1.73558e+01
       C  2.54619e+01  3.43103e+01  1.01743e+01
       O  2.56998e+01  3.34446e+01  1.09142e+01
       O  2.52255e+01  3.51739e+01  9.43147e+00
       C  6.07753e+00  3.87975e+01  1.74261e+01
       O  7.11697e+00  3.91325e+01  1.70272e+01
       O  5.04467e+00  3.84578e+01  1.78379e+01
       C  2.07065e+01  3.66873e+01  3.24093e+01
       O  1.99616e+01  3.63347e+01  3.32301e+01
       O  2.14417e+01  3.70477e+01  3.15840e+01
       C  3.07667e+01  3.06067e+01  1.18525e+01
       O  2.98029e+01  3.09072e+01  1.24294e+01
       O  3.17264e+01  3.03070e+01  1.12676e+01
       C  2.37358e+01  2.78045e+01  3.45691e+01
       O  2.28598e+01  2.70452e+01  3.44793e+01
       O  2.46128e+01  2.85618e+01  3.46678e+01
       C  1.98697e+01  4.00306e+00  3.01135e+01
       O  1.87560e+01  3.67142e+00  3.01598e+01
       O  2.09820e+01  4.33855e+00  3.00562e+01
       C  2.43989e+01  2.59383e+01  1.27140e+01
       O  2.34235e+01  2.53937e+01  1.30405e+01
       O  2.53827e+01  2.64685e+01  1.23910e+01
       C  1.00103e+01  2.77164e+01  2.19498e+01
       O  9.92694e+00  2.87440e+01  2.14134e+01
       O  1.00828e+01  2.66850e+01  2.24810e+01
       C  2.05294e+01  3.09639e+01  1.45092e+01
       O  2.15224e+01  3.12402e+01  1.39716e+01
       O  1.95308e+01  3.06832e+01  1.50348e+01
       C  3.83242e+01  1.20636e+01  1.95779e+01
       O  3.80186e+01  1.31851e+01  1.95805e+01
       O  3.86491e+01  1.09478e+01  1.95823e+01
       C  3.26270e+01  2.52200e+01  2.16906e+01
       O  3.29458e+01  2.56799e+01  2.06717e+01
       O  3.22992e+01  2.47696e+01  2.27116e+01
       C  1.99100e+01  3.50413e+01  1.87491e+01
       O  2.05378e+01  3.51703e+01  1.77789e+01
       O  1.92662e+01  3.49099e+01  1.97075e+01
       C  2.28705e+01  2.14681e+01  1.71347e+01
       O  2.21284e+01  2.23008e+01  1.74664e+01
       O  2.36186e+01  2.06355e+01  1.68193e+01
       C  1.39988e+01  2.56144e+01  3.08847e+01
       O  1.51097e+01  2.52788e+01  3.08145e+01
       O  1.28905e+01  2.59594e+01  3.09431e+01
       C  3.65180e+01  1.28690e+01  4.07246e+00
       O  3.66207e+01  1.17110e+01  4.04340e+00
       O  3.64173e+01  1.40271e+01  4.10153e+00
       C  1.47226e+01  2.04710e+01  1.53296e+01
       O  1.38238e+01  1.97377e+01  1.54115e+01
       O  1.56237e+01  2.12020e+01  1.52568e+01
       C  1.33392e+01  5.33745e+00  3.78054e+01
       O  1.23539e+01  4.98843e+00  3.72967e+01
       O  1.43248e+01  5.68955e+00  3.83106e+01
       C  2.07691e+00  3.66449e+01  2.92313e+01
       O  1.02273e+00  3.67416e+01  2.97133e+01
       O  3.12705e+00  3.65617e+01  2.87424e+01
       C  1.07003e+01  3.17838e+01  1.26836e+01
       O  9.58870e+00  3.20646e+01  1.28735e+01
       O  1.18120e+01  3.15005e+01  1.24898e+01
       C  3.43481e+01  6.63983e+00  3.14779e+01
       O  3.32556e+01  6.52449e+00  3.10971e+01
       O  3.54402e+01  6.76193e+00  3.18558e+01
       C  1.64036e+01  2.31944e+01  2.20652e+00
       O  1.55192e+01  2.30179e+01  2.94054e+00
       O  1.72821e+01  2.33686e+01  1.46395e+00
       C  1.92776e+01  2.96387e+01  1.12255e+01
       O  2.04206e+01  2.98458e+01  1.12802e+01
       O  1.81352e+01  2.94284e+01  1.11767e+01
       C  1.00664e+01  5.89616e+00  2.91124e+01
       O  1.08056e+01  5.82937e+00  2.82167e+01
       O  9.33581e+00  5.96733e+00  3.00137e+01
       C  1.15046e+01  7.77250e+00  2.08394e+01
       O  1.05534e+01  7.67211e+00  2.15005e+01
       O  1.24561e+01  7.87567e+00  2.01793e+01
       C  1.42740e+01  2.32003e+01  2.52684e+01
       O  1.32212e+01  2.33951e+01  2.57225e+01
       O  1.53230e+01  2.30049e+01  2.48066e+01
       C  2.85360e+01  3.05886e+01  2.21020e+01
       O  2.92357e+01  3.03466e+01  2.12064e+01
       O  2.78212e+01  3.08259e+01  2.29876e+01
       C  1.79167e+01  3.81919e+01  2.68362e+00
       O  1.82909e+01  3.89166e+01  1.85551e+00
       O  1.75315e+01  3.74869e+01  3.52472e+00
       C  1.06152e+01  2.81176e+01  3.06009e+01
       O  9.77404e+00  2.77181e+01  3.12968e+01
       O  1.14531e+01  2.85181e+01  2.99006e+01
       C  1.68223e+01  1.57713e+01  9.23242e+00
       O  1.64351e+01  1.67064e+01  9.80511e+00
       O  1.72052e+01  1.48370e+01  8.65547e+00
       C  2.20149e+01  2.20099e-01  2.68772e+01
       O  2.13763e+01 -2.70159e-01  2.77146e+01
       O  2.26635e+01  7.07613e-01  2.60453e+01
       C  1.43842e+01  8.96465e+00  1.54352e+01
       O  1.34775e+01  8.91210e+00  1.47094e+01
       O  1.52982e+01  9.02589e+00  1.61503e+01
       C  1.81963e+01  1.98585e+01  2.78264e+00
       O  1.71552e+01  2.01665e+01  2.36576e+00
       O  1.92441e+01  1.95521e+01  3.17943e+00
       C  2.48495e+01  1.93409e+01  3.17361e+01
       O  2.53905e+01  1.93531e+01  3.27648e+01
       O  2.43129e+01  1.93258e+01  3.07044e+01
       C  3.68070e+00  1.76796e+00  1.46678e+01
       O  4.12480e+00  7.34990e-01  1.49647e+01
       O  3.24811e+00  2.80322e+00  1.43607e+01
       C  3.11432e+01  3.60494e+01  5.65727e+00
       O  3.21711e+01  3.60806e+01  6.19965e+00
       O  3.01181e+01  3.60103e+01  5.10855e+00
       C  1.37413e+00  3.17821e+01  7.59035e+00
       O  3.67973e-01  3.16829e+01  8.16501e+00
       O  2.38370e+00  3.18868e+01  7.02307e+00
       C  1.46064e+01  1.68050e+01  2.80884e+01
       O  1.42606e+01  1.59154e+01  2.74262e+01
       O  1.49536e+01  1.77025e+01  2.87417e+01
       C  3.44766e+00  2.98639e+01  1.01424e+01
       O  4.12861e+00  2.89249e+01  1.02203e+01
       O  2.76348e+00  3.08001e+01  1.00518e+01
       C  7.00364e+00  2.92268e+01  1.65144e+00
       O  7.64689e+00  2.83079e+01  1.34199e+00
       O  6.36712e+00  3.01509e+01  1.95371e+00
       C  2.19484e+01  1.42428e+01  1.92392e+01
       O  2.30465e+01  1.44773e+01  1.95402e+01
       O  2.08469e+01  1.40246e+01  1.89399e+01
       C  1.34297e+01  1.90921e+01  1.84454e+01
       O  1.44143e+01  1.84846e+01  1.83255e+01
       O  1.24536e+01  1.97123e+01  1.85659e+01
       C  2.60657e+01  3.84073e+01  1.57073e+01
       O  2.64473e+01  3.84457e+01  1.68045e+01
       O  2.56810e+01  3.83522e+01  1.46110e+01
       C  6.63014e+00  1.77075e+01  3.15164e+01
       O  6.36229e+00  1.87396e+01  3.10520e+01
       O  6.89621e+00  1.66723e+01  3.19751e+01
       C  3.32937e+01  2.74382e+01  3.63798e+01
       O  3.34411e+01  2.64679e+01  3.57554e+01
       O  3.31423e+01  2.84030e+01  3.70114e+01
       C  3.70649e+01  1.31984e+01  3.09720e+01
       O  3.60462e+01  1.36357e+01  3.06223e+01
       O  3.80843e+01  1.27603e+01  3.13201e+01
       C  2.94015e+01  1.56998e+01  2.02902e+01
       O  3.00227e+01  1.52105e+01  1.94380e+01
       O  2.87659e+01  1.61903e+01  2.11312e+01
       C  8.95056e+00  2.16310e+01  3.71395e+01
       O  8.41530e+00  2.09997e+01  3.79564e+01
       O  9.49097e+00  2.22582e+01  3.63232e+01
       C  2.64986e+01  1.77249e+01  2.28074e+01
       O  2.71274e+01  1.86145e+01  2.32149e+01
       O  2.58657e+01  1.68388e+01  2.23989e+01
       C  1.86351e+01  3.74456e+01  7.42871e+00
       O  1.83351e+01  3.71924e+01  8.52146e+00
       O  1.89420e+01  3.77098e+01  6.33996e+00
       C  1.21508e+01  2.69003e+01  7.09149e+00
       O  1.26142e+01  2.61119e+01  6.37261e+00
       O  1.16831e+01  2.76949e+01  7.79943e+00
       C  3.77193e+01  2.33303e+01  3.66913e+01
       O  3.74202e+01  2.44270e+01  3.69370e+01
       O  3.80197e+01  2.22347e+01  3.64472e+01
       C  2.22732e+01  3.75565e+01  2.06987e+01
       O  2.20235e+01  3.65655e+01  2.01433e+01
       O  2.25198e+01  3.85408e+01  2.12653e+01
       C  3.65681e+01  2.89981e+01  2.62419e+01
       O  3.55363e+01  2.87426e+01  2.57707e+01
       O  3.75954e+01  2.92528e+01  2.67220e+01
       C  1.28154e+01  4.96110e+00  2.34897e+01
       O  1.21606e+01  5.01524e+00  2.25310e+01
       O  1.34785e+01  4.91866e+00  2.44438e+01
       C  2.48850e+01  2.05233e+01  3.56781e+01
       O  2.40069e+01  2.10986e+01  3.51843e+01
       O  2.57600e+01  1.99438e+01  3.61809e+01
       C  1.81670e+01  3.33387e+01  3.99801e+00
       O  1.93167e+01  3.34905e+01  4.09161e+00
       O  1.70173e+01  3.31821e+01  3.92268e+00
       C  2.24981e+01  1.24293e+01  2.76535e+00
       O  2.14084e+01  1.28299e+01  2.70892e+00
       O  2.35865e+01  1.20248e+01  2.82712e+00
       C  1.66999e+01  1.29579e+01  2.82325e+01
       O  1.78358e+01  1.28321e+01  2.84470e+01
       O  1.55648e+01  1.30707e+01  2.80143e+01
       C  8.48075e+00  6.63107e+00  1.84125e+01
       O  7.93766e+00  5.60249e+00  1.84301e+01
       O  9.02666e+00  7.65695e+00  1.83918e+01
       C  2.06149e+01  3.17462e+01  3.64029e+01
       O  1.94679e+01  3.18298e+01  3.65566e+01
       O  2.17682e+01  3.16635e+01  3.62863e+01
       C  1.82186e+01  3.28866e+01  9.63575e+00
       O  1.92072e+01  3.22782e+01  9.69915e+00
       O  1.72310e+01  3.34991e+01  9.58867e+00
       C  6.87400e+00  1.84312e+01  3.84527e+01
       O  7.73144e+00  1.78736e+01  3.90052e+01
       O  6.01229e+00  1.89696e+01  3.78889e+01
       C  1.16347e+01  8.65563e+00  1.23466e+01
       O  1.15727e+01  9.80155e+00  1.21618e+01
       O  1.16850e+01  7.50786e+00  1.25266e+01
       C  3.70979e+00  2.67574e+01  2.59075e+01
       O  2.88412e+00  2.75659e+01  2.60370e+01
       O  4.52313e+00  2.59354e+01  2.57802e+01
       C  1.62684e+01  7.41725e-03  9.80123e+00
       O  1.56263e+01 -8.03551e-01  9.27185e+00
       O  1.69084e+01  8.27077e-01  1.03225e+01
       C  1.33133e+00  1.65286e+00  2.84183e+01
       O  4.43442e-01  2.31816e+00  2.87656e+01
       O  2.21649e+00  9.82622e-01  2.80751e+01
       C  3.24840e+01  3.84902e+01  2.43954e+01
       O  3.35375e+01  3.80905e+01  2.41057e+01
       O  3.14245e+01  3.88806e+01  2.46723e+01
       C  2.34664e+01  2.98023e+01  1.11525e+01
       O  2.34433e+01  2.87823e+01  1.17121e+01
       O  2.34909e+01  3.08195e+01  1.05881e+01
       C  3.42309e+01  3.12194e+01  2.87372e+01
       O  3.48004e+01  3.21491e+01  2.91408e+01
       O  3.36731e+01  3.02762e+01  2.83482e+01
       C  3.53757e+00  2.86232e+01  2.00593e+00
       O  4.32489e+00  2.77681e+01  1.99724e+00
       O  2.74924e+00  2.94770e+01  2.02904e+00
       C  3.71306e+01  1.61148e+01  3.71297e+01
       O  3.62349e+01  1.60856e+01  3.78704e+01
       O  3.80312e+01  1.61523e+01  3.63947e+01
       C  8.45379e+00  9.36737e+00  3.25917e+01
       O  8.44443e+00  9.10660e+00  3.14586e+01
       O  8.47874e+00  9.64250e+00  3.37210e+01
       C  2.84964e+01  1.97922e+01  3.02319e+01
       O  2.74569e+01  2.03134e+01  3.02618e+01
       O  2.95383e+01  1.92787e+01  3.01928e+01
       C  1.71059e+01  2.52641e+01  3.68687e+01
       O  1.81409e+01  2.51106e+01  3.73764e+01
       O  1.60764e+01  2.54206e+01  3.63514e+01
       C  8.44980e+00  6.57732e+00  6.30797e+00
       O  8.95924e+00  6.32250e+00  5.29395e+00
       O  7.93326e+00  6.82134e+00  7.32110e+00
       C  3.47223e+00  2.56136e+01  4.04666e+00
       O  3.09477e+00  2.49507e+01  3.16910e+00
       O  3.84448e+00  2.62842e+01  4.92047e+00
       C  2.17889e+01  1.26017e+01  2.34101e+01
       O  2.14095e+01  1.26217e+01  2.23105e+01
       O  2.21636e+01  1.25591e+01  2.45103e+01
       C  2.09020e+01  3.59110e+01  2.22208e+00
       O  2.20517e+01  3.59903e+01  2.39038e+00
       O  1.97588e+01  3.58198e+01  2.04019e+00
       C  2.58688e+01  2.41487e+01  2.54681e+01
       O  2.61135e+01  2.41977e+01  2.66041e+01
       O  2.56305e+01  2.41036e+01  2.43309e+01
       C  2.11028e+01  2.89039e+01  8.51232e+00
       O  2.21290e+01  2.84784e+01  8.85387e+00
       O  2.00742e+01  2.93286e+01  8.17420e+00
       C  3.21690e+01  3.13627e+01  7.93812e+00
       O  3.13788e+01  3.21408e+01  8.28663e+00
       O  3.29606e+01  3.05853e+01  7.59034e+00
       C  3.44549e+01  2.08280e+01  2.43213e+00
       O  3.52638e+01  1.99935e+01  2.40011e+00
       O  3.36444e+01  2.16617e+01  2.46312e+00
       C  2.12653e+01  7.51992e+00  1.44932e+01
       O  2.23193e+01  7.14706e+00  1.41737e+01
       O  2.02169e+01  7.90531e+00  1.48190e+01
       C  2.62058e+01  3.29316e+01  1.97233e+01
       O  2.73112e+01  3.28698e+01  2.00772e+01
       O  2.50959e+01  3.29777e+01  1.93807e+01
       C  2.75875e+01  2.47652e+01  2.94438e+01
       O  2.74902e+01  2.59119e+01  2.96090e+01
       O  2.76913e+01  2.36189e+01  2.92789e+01
       C  3.00924e+01  1.80151e+00  8.62625e-01
       O  3.04921e+01  1.13936e+00  1.72988e+00
       O  2.96991e+01  2.46309e+00 -7.96479e-03
       C  2.28643e+01  2.19459e+01  2.63283e+01
       O  2.33726e+01  2.27996e+01  2.57262e+01
       O  2.23472e+01  2.10931e+01  2.69244e+01
       C  3.96645e+00  1.82260e+01  1.41962e+01
       O  2.99029e+00  1.80003e+01  1.36059e+01
       O  4.94737e+00  1.84636e+01  1.47740e+01
       C  1.66774e+01  2.69531e+01  1.19334e+01
       O  1.57165e+01  2.74427e+01  1.14979e+01
       O  1.76394e+01  2.64533e+01  1.23530e+01
       C  3.61067e+01  1.11046e+01  1.66044e+01
       O  3.62367e+01  1.08274e+01  1.54822e+01
       O  3.59722e+01  1.13872e+01  1.77244e+01
       C  3.03233e+01  2.28994e+01  3.07592e+01
       O  3.07187e+01  2.36032e+01  2.99221e+01
       O  2.99201e+01  2.21892e+01  3.15857e+01
       C  1.11724e+01  2.51580e+01  2.48117e+01
       O  1.03914e+01  2.42964e+01  2.48237e+01
       O  1.19574e+01  2.60166e+01  2.48112e+01
       C  1.87747e+01  2.40440e+01  1.76831e+01
       O  1.89154e+01  2.39669e+01  1.65319e+01
       O  1.86253e+01  2.41008e+01  1.88349e+01
       C  3.50930e+01  5.90189e+00  2.18804e+01
       O  3.49547e+01  5.20717e+00  2.28021e+01
       O  3.52430e+01  6.60160e+00  2.09638e+01
       C  3.54039e+01  1.42801e+01  1.00093e+01
       O  3.65228e+01  1.45950e+01  1.00509e+01
       O  3.42879e+01  1.39561e+01  9.96244e+00
       C  2.33193e+01  2.68173e+01  2.87344e+00
       O  2.24146e+01  2.61845e+01  3.23898e+00
       O  2.42259e+01  2.74456e+01  2.51181e+00
       C  1.90677e+01  3.04116e+01  2.67679e+01
       O  1.85752e+01  3.09483e+01  2.58610e+01
       O  1.95736e+01  2.98693e+01  2.76628e+01
       C  1.46749e+01  3.43479e+01  1.51162e+01
       O  1.56777e+01  3.49371e+01  1.51610e+01
       O  1.36663e+01  3.37709e+01  1.50655e+01
       C  9.96329e+00  1.05976e+01  4.97816e+00
       O  9.75954e+00  9.55074e+00  5.44079e+00
       O  1.01626e+01  1.16422e+01  4.50756e+00
       C  2.97699e+00  1.99581e+01  3.16840e+01
       O  3.70664e+00  2.04212e+01  3.24618e+01
       O  2.24351e+00  1.94897e+01  3.09125e+01
       C  3.32789e+00  1.21103e+01  3.38583e+01
       O  2.63130e+00  1.20041e+01  3.47835e+01
       O  4.02103e+00  1.22216e+01  3.29315e+01
       C  3.64460e+01  2.05178e+01  5.55214e+00
       O  3.53897e+01  2.09372e+01  5.30442e+00
       O  3.75095e+01  2.01107e+01  5.78786e+00
       C  1.62572e+01  3.04929e+01  3.46957e+01
       O  1.58854e+01  3.06464e+01  3.36049e+01
       O  1.66394e+01  3.03224e+01  3.57795e+01
       C  2.12554e+01  2.42001e+01  2.34732e+01
       O  2.09452e+01  2.53115e+01  2.36259e+01
       O  2.15660e+01  2.30908e+01  2.33254e+01
       C  2.42861e+01  3.03435e+01  3.15912e+00
       O  2.31637e+01  3.03311e+01  2.88380e+00
       O  2.54063e+01  3.03402e+01  3.45263e+00
       C  2.76430e+01  3.14976e+01  1.67820e+00
       O  2.69133e+01  3.23972e+01  1.58041e+00
       O  2.83612e+01  3.05880e+01  1.77564e+00
       C  1.57792e+01  2.81155e+01  8.42267e+00
       O  1.68693e+01  2.84980e+01  8.54849e+00
       O  1.46932e+01  2.77155e+01  8.30927e+00
       C  2.99122e+01  2.75694e+01  2.84884e+01
       O  2.92172e+01  2.83969e+01  2.80605e+01
       O  3.06128e+01  2.67524e+01  2.89269e+01
       C  3.82222e+01  3.43190e+01  3.11146e+01
       O  3.72731e+01  3.44921e+01  3.04644e+01
       O  3.91473e+01  3.41501e+01  3.17917e+01
       C  3.10133e+01  3.32766e+00  2.49952e+01
       O  3.08770e+01  3.08989e+00  2.61257e+01
       O  3.11514e+01  3.56515e+00  2.38643e+01
       C  1.54502e+01  1.99547e+01  2.64644e+01
       O  1.48645e+01  2.08167e+01  2.69776e+01
       O  1.60383e+01  1.90911e+01  2.59536e+01
       C  3.60815e+01  3.33608e+01  1.89213e+01
       O  3.65757e+01  3.27270e+01  1.80819e+01
       O  3.55849e+01  3.40068e+01  1.97505e+01
       C  1.74544e+01  6.85978e+00  1.53604e+01
       O  1.78404e+01  6.46795e+00  1.63849e+01
       O  1.70641e+01  7.23754e+00  1.43322e+01
       C  2.97664e+00  1.75754e+01  2.29064e+01
       O  3.07738e+00  1.67896e+01  2.37577e+01
       O  2.87337e+00  1.83681e+01  2.20616e+01
       C  7.93460e+00  2.88686e+01  8.77267e+00
       O  8.64513e+00  2.79918e+01  8.49024e+00
       O  7.22943e+00  2.97520e+01  9.04419e+00
       C  1.94520e+01  2.22478e+01  5.14709e+00
       O  1.85937e+01  2.23942e+01  4.37537e+00
       O  2.03018e+01  2.21010e+01  5.92803e+00
       C  2.46678e+00  3.09910e+00  3.82168e+00
       O  1.93911e+00  2.90709e+00  2.80479e+00
       O  3.00442e+00  3.28491e+00  4.83627e+00
       C  3.60807e+01  1.50371e+01  2.44785e+01
       O  3.49238e+01  1.50746e+01  2.45837e+01
       O  3.72382e+01  1.50047e+01  2.43740e+01
       C  1.74430e+01  6.78974e+00  2.52212e+01
       O  1.72319e+01  5.82770e+00  2.58395e+01
       O  1.76655e+01  7.75145e+00  2.46069e+01
       C  3.66452e+01  6.27698e+00  1.49521e+01
       O  3.57971e+01  7.05661e+00  1.51103e+01
       O  3.75017e+01  5.50670e+00  1.47951e+01
       C  2.97218e+01  3.03854e+00  3.32005e+01
       O  3.08423e+01  3.30369e+00  3.30425e+01
       O  2.86005e+01  2.77462e+00  3.33545e+01
       C  3.81740e+01  7.75626e+00  3.79550e+01
       O  3.76165e+01  8.13446e+00  3.70076e+01
       O  3.87154e+01  7.36669e+00  3.89078e+01
       C  2.27333e+01  2.54920e+00  1.20911e+01
       O  2.35392e+01  2.51698e+00  1.12535e+01
       O  2.19298e+01  2.57982e+00  1.29314e+01
       C  1.48739e+01  1.01273e+01  2.82999e+01
       O  1.57699e+01  1.01248e+01  2.90423e+01
       O  1.39839e+01  1.01437e+01  2.75517e+01
       C  2.52331e+01  8.73718e+00  1.55350e+01
       O  2.53211e+01  9.89152e+00  1.54295e+01
       O  2.51357e+01  7.58429e+00  1.56361e+01
       C  2.87969e+01  1.32369e+01  3.01047e+01
       O  2.88626e+01  1.24297e+01  2.92702e+01
       O  2.87313e+01  1.40474e+01  3.09356e+01
       C  1.05266e+01  1.56727e+01  2.97236e+01
       O  1.03168e+01  1.54157e+01  3.08386e+01
       O  1.07315e+01  1.59411e+01  2.86114e+01
       C  7.27610e+00  3.61772e+00  1.53050e+01
       O  6.29753e+00  3.02016e+00  1.54972e+01
       O  8.25393e+00  4.22084e+00  1.51266e+01
       C  2.29690e+01  2.03608e+00  2.97869e+01
       O  2.34351e+01  2.42949e+00  2.87966e+01
       O  2.25102e+01  1.62699e+00  3.07734e+01
       C  2.64474e+01  2.03631e+01  6.80443e-01
       O  2.58212e+01  2.13355e+01  5.75353e-01
       O  2.70756e+01  1.93894e+01  7.96276e-01
       C  3.16691e+01  2.47948e+01 -6.31093e-01
       O  3.11698e+01  2.58450e+01 -6.35198e-01
       O  3.21732e+01  2.37464e+01 -6.36481e-01
       C  1.72373e+01  1.43927e+01  3.13961e+01
       O  1.82657e+01  1.47305e+01  3.18190e+01
       O  1.62109e+01  1.40584e+01  3.09654e+01
       C  2.90576e+01  2.05273e+01  2.44947e+01
       O  2.90475e+01  2.11883e+01  2.35383e+01
       O  2.90745e+01  1.98632e+01  2.54484e+01
       C  6.59165e+00  2.85830e+01  2.44721e+01
       O  5.65707e+00  2.88243e+01  2.51197e+01
       O  7.51715e+00  2.83346e+01  2.38129e+01
       C  1.39036e+01  1.55646e+01  1.07798e+01
       O  1.42652e+01  1.45403e+01  1.03664e+01
       O  1.35413e+01  1.65885e+01  1.11955e+01
       C  1.22800e+01  2.27971e+01  1.14893e+01
       O  1.34012e+01  2.25065e+01  1.13905e+01
       O  1.11605e+01  2.30972e+01  1.15779e+01
       C  1.06203e+01  1.54303e+01  1.18235e+01
       O  1.13984e+01  1.48165e+01  1.24321e+01
       O  9.84519e+00  1.60497e+01  1.12174e+01
       C  3.41182e+01  2.30013e+01  1.55880e+01
       O  3.45764e+01  2.40687e+01  1.56383e+01
       O  3.36467e+01  2.19402e+01  1.55319e+01
       C  1.98499e+01  1.41734e+00  9.37858e+00
       O  1.92486e+01  1.55334e+00  8.39220e+00
       O  2.04476e+01  1.27041e+00  1.03652e+01
       C  3.78855e+01  2.42871e+01  6.71557e+00
       O  3.83946e+01  2.53225e+01  6.57365e+00
       O  3.73751e+01  2.32522e+01  6.86149e+00
       C  3.76150e+01  2.07296e+01  1.20302e+01
       O  3.86181e+01  2.09819e+01  1.25602e+01
       O  3.66126e+01  2.04709e+01  1.14988e+01
       C  3.11908e+01  6.12201e+00  3.37898e+01
       O  3.00486e+01  6.24370e+00  3.36067e+01
       O  3.23335e+01  6.00945e+00  3.39705e+01
       C  3.37831e+01  4.61906e+00  4.42061e+00
       O  3.37882e+01  3.84188e+00  5.28413e+00
       O  3.37845e+01  5.39378e+00  3.55430e+00
       C  7.17268e-01  2.24889e+01  1.84436e+01
       O  2.37013e-01  2.22185e+01  1.74205e+01
       O  1.21731e+00  2.27604e+01  1.94580e+01
       C  1.85832e+01  1.53255e+01  2.22989e+01
       O  1.78384e+01  1.54768e+01  2.14200e+01
       O  1.93193e+01  1.51643e+01  2.31848e+01
       C  9.29263e-01  2.13918e+01  8.77064e+00
       O  1.20547e-01  2.19072e+01  9.42774e+00
       O  1.74053e+00  2.08866e+01  8.10745e+00
       C  1.85116e+01  1.86211e+01  3.18845e+01
       O  1.79280e+01  1.87421e+01  3.08856e+01
       O  1.90895e+01  1.84948e+01  3.28854e+01
       C  1.45521e+01  2.12187e+00  1.50195e+01
       O  1.54267e+01  2.83443e+00  1.53009e+01
       O  1.36753e+01  1.41290e+00  1.47350e+01