10370
# CELL(abcABC):  115.67300   115.67300   115.67300    90.00000    90.00000    90.00000  Step:         300  Bead:       0 x_centroid{angstrom}  cell{atomic_unit}
       C  2.91306e+01  5.57026e+01  5.31322e+01
       O  2.81207e+01  5.55688e+01  5.36928e+01
       O  3.01346e+01  5.58540e+01  5.25659e+01
       C  1.03100e+00  3.32469e+01  6.04060e+01
       O  1.21358e+00  3.43873e+01  6.02734e+01
       O  8.48059e-01  3.21078e+01  6.05450e+01
       C  3.43396e+01  1.18514e+01  1.15432e+01
       O  3.48606e+01  1.18803e+01  1.05041e+01
       O  3.38174e+01  1.18319e+01  1.25826e+01
       C  1.75136e+01  2.66115e+01  1.57195e+00
       O  1.69156e+01  2.76075e+01  1.60517e+00
       O  1.80992e+01  2.56075e+01  1.53831e+00
       C  4.23776e+00  1.21101e+01  1.94393e+00
       O  4.62464e+00  1.16015e+01  2.91488e+00
       O  3.85729e+00  1.26207e+01  9.71804e-01
       C  4.87482e+01  3.90404e+01  2.97232e+01
       O  4.84788e+01  3.91391e+01  2.85966e+01
       O  4.90157e+01  3.89349e+01  3.08499e+01
       C  1.79294e+01  4.23664e+01  2.26412e+01
       O  1.88745e+01  4.17414e+01  2.29010e+01
       O  1.69939e+01  4.30042e+01  2.23785e+01
       C  1.63382e+01  2.07243e+00  1.55762e+01
       O  1.56659e+01  1.23545e+00  1.60225e+01
       O  1.70076e+01  2.91278e+00  1.51312e+01
       C  4.93687e+01  1.52288e+01  3.12839e+01
       O  4.89742e+01  1.43345e+01  3.06548e+01
       O  4.97437e+01  1.61304e+01  3.19149e+01
       C  5.01598e+01  2.02845e+01  5.66570e+01
       O  4.92967e+01  2.07347e+01  5.60211e+01
       O  5.10302e+01  1.98479e+01  5.72931e+01
       C  6.15478e+00  9.61002e+00  3.67179e+01
       O  6.96591e+00  1.04264e+01  3.65538e+01
       O  5.33737e+00  8.79881e+00  3.68723e+01
       C  5.18180e+00  1.10661e+01  4.96536e+01
       O  4.92267e+00  1.00950e+01  5.02380e+01
       O  5.44795e+00  1.20359e+01  4.90696e+01
       C  3.78208e+01  3.15620e+01  3.16113e+01
       O  3.72199e+01  3.05678e+01  3.15904e+01
       O  3.84242e+01  3.25547e+01  3.16231e+01
       C  5.10755e+01  4.17764e+01  1.72492e+01
       O  5.01818e+01  4.19642e+01  1.65287e+01
       O  5.19775e+01  4.15686e+01  1.79540e+01
       C  5.69975e+01  2.55099e+01  5.35267e+01
       O  5.64453e+01  2.48221e+01  5.42842e+01
       O  5.75514e+01  2.61941e+01  5.27672e+01
       C  1.01985e+01  5.19999e+01  3.83240e+01
       O  9.63330e+00  5.30144e+01  3.82657e+01
       O  1.07689e+01  5.09888e+01  3.83826e+01
       C  1.29539e+01  1.76661e+01  2.01404e+01
       O  1.32920e+01  1.65568e+01  2.02250e+01
       O  1.25969e+01  1.87705e+01  2.00668e+01
       C  1.75898e+01  2.37047e+01  1.21943e+01
       O  1.86084e+01  2.39711e+01  1.16997e+01
       O  1.65833e+01  2.34288e+01  1.27051e+01
       C  5.74650e+01  1.65962e+01  3.07950e+01
       O  5.81559e+01  1.67551e+01  3.17172e+01
       O  5.67720e+01  1.64278e+01  2.98785e+01
       C  5.04078e+01  4.16938e+01  3.29694e+00
       O  4.94866e+01  4.20634e+01  3.90239e+00
       O  5.13317e+01  4.13269e+01  2.69455e+00
       C  3.51328e+01  9.20866e+00  1.82073e+01
       O  3.60261e+01  8.48689e+00  1.83847e+01
       O  3.42333e+01  9.92531e+00  1.80357e+01
       C  2.49677e+01  1.40516e+01  1.96660e+01
       O  2.48946e+01  1.29775e+01  2.01027e+01
       O  2.50613e+01  1.51295e+01  1.92400e+01
       C  7.21424e+00  2.54197e+01 -5.15163e-02
       O  7.84039e+00  2.44523e+01 -2.04808e-01
       O  6.58163e+00  2.63798e+01  1.17974e-01
       C  1.06564e+01  3.31942e+01  2.00674e+01
       O  1.17065e+01  3.26986e+01  2.00069e+01
       O  9.60285e+00  3.36809e+01  2.01330e+01
       C  1.82149e+01  2.51111e+01  3.80902e+01
       O  1.81382e+01  2.46242e+01  3.70375e+01
       O  1.82881e+01  2.55960e+01  3.91435e+01
       C  4.84077e+01  2.65599e+01  4.97471e+01
       O  4.81228e+01  2.54326e+01  4.97544e+01
       O  4.87027e+01  2.76838e+01  4.97377e+01
       C  2.63639e+01  3.66965e+01  2.56196e+01
       O  2.74579e+01  3.67928e+01  2.60017e+01
       O  2.52684e+01  3.66143e+01  2.52362e+01
       C  3.43997e+01  1.85691e+01  4.15537e+01
       O  3.42250e+01  1.94959e+01  4.22341e+01
       O  3.45733e+01  1.76384e+01  4.08787e+01
       C  3.31234e+01  3.51644e+01  3.20223e+01
       O  3.22780e+01  3.43706e+01  3.19479e+01
       O  3.39745e+01  3.59539e+01  3.20781e+01
       C  2.33786e+01  1.61608e+01  4.88789e+01
       O  2.36886e+01  1.60082e+01  4.99893e+01
       O  2.30703e+01  1.63189e+01  4.77693e+01
       C  1.60216e+01  2.94416e+01  1.48664e+01
       O  1.50516e+01  2.88707e+01  1.45720e+01
       O  1.69897e+01  3.00212e+01  1.51453e+01
       C  1.68107e+01  7.71350e+00  1.85949e+01
       O  1.76282e+01  7.11156e+00  1.91626e+01
       O  1.59923e+01  8.30725e+00  1.80198e+01
       C  1.47415e+01  1.43677e-01  5.22087e+01
       O  1.53611e+01  9.03682e-01  5.15841e+01
       O  1.41348e+01 -6.21704e-01  5.28404e+01
       C  3.27994e+01  2.87366e+01  3.98720e+01
       O  3.25257e+01  2.97049e+01  4.04547e+01
       O  3.30977e+01  2.77677e+01  3.93036e+01
       C  3.62025e+01  4.22991e+01  2.33558e+01
       O  3.71449e+01  4.29784e+01  2.33121e+01
       O  3.52652e+01  4.16116e+01  2.34004e+01
       C  1.52064e+01  4.67908e+01  8.00776e+00
       O  1.62838e+01  4.71637e+01  8.23665e+00
       O  1.41290e+01  4.64183e+01  7.78112e+00
       C  2.87469e+01  4.88753e+01  2.81734e+01
       O  2.85744e+01  4.78504e+01  2.86945e+01
       O  2.89333e+01  4.99014e+01  2.76599e+01
       C  3.69566e+01  1.74659e+01  4.41557e+01
       O  3.70208e+01  1.70173e+01  4.52263e+01
       O  3.68841e+01  1.79122e+01  4.30853e+01
       C  2.63681e+01  5.10819e+01  3.49311e+01
       O  2.63991e+01  5.11284e+01  3.60919e+01
       O  2.63290e+01  5.10396e+01  3.37700e+01
       C  4.94592e+01  4.47375e+00  9.28605e-01
       O  5.00148e+01  3.86133e+00  1.11982e-01
       O  4.89099e+01  5.07351e+00  1.75914e+00
       C  1.08813e+01  4.03602e+01  3.45122e+01
       O  1.08739e+01  3.93400e+01  3.39550e+01
       O  1.08888e+01  4.13774e+01  3.50756e+01
       C  3.75233e+00  9.32878e+00  5.30785e+01
       O  3.53068e+00  8.32725e+00  5.25325e+01
       O  3.96866e+00  1.03255e+01  5.36350e+01
       C  2.60896e+01  5.79043e+01  3.51803e+01
       O  2.59361e+01  5.71677e+01  3.42933e+01
       O  2.62312e+01  5.86241e+01  3.60830e+01
       C  5.40200e+01  3.15769e+01  1.78804e+01
       O  5.43417e+01  3.26924e+01  1.79347e+01
       O  5.36968e+01  3.04612e+01  1.78275e+01
       C  3.41769e+01  4.01358e+01  2.05145e+01
       O  3.35993e+01  4.09936e+01  1.99822e+01
       O  3.47482e+01  3.92785e+01  2.10542e+01
       C  5.89870e+01  2.75160e+01  3.96708e+01
       O  5.91978e+01  2.84368e+01  3.89932e+01
       O  5.87691e+01  2.65991e+01  4.03520e+01
       C  5.97144e+01  2.92067e+01  2.79240e+01
       O  5.88084e+01  2.88623e+01  2.72823e+01
       O  6.06203e+01  2.95575e+01  2.85622e+01
       C  3.27341e+01  1.05713e+01  1.17338e+00
       O  3.30055e+01  1.12501e+01  2.69901e-01
       O  3.24514e+01  9.89840e+00  2.07946e+00
       C  4.82739e+01  4.83604e+01  3.26428e+01
       O  4.73972e+01  4.91232e+01  3.26643e+01
       O  4.91584e+01  4.76082e+01  3.26293e+01
       C  4.15815e+01  4.69127e+01  2.07373e+01
       O  4.22583e+01  4.78491e+01  2.06094e+01
       O  4.08951e+01  4.59858e+01  2.08803e+01
       C  2.34386e+01  2.67935e+01  7.88904e+00
       O  2.31758e+01  2.61864e+01  6.93351e+00
       O  2.36962e+01  2.74050e+01  8.84342e+00
       C  2.24518e+01  6.81842e+00  2.24213e+01
       O  2.16170e+01  6.15890e+00  2.28898e+01
       O  2.32833e+01  7.46864e+00  2.19325e+01
       C  4.21492e+01  4.91333e+01  4.07689e+01
       O  4.24113e+01  4.97086e+01  4.17449e+01
       O  4.18817e+01  4.85586e+01  3.97933e+01
       C  4.63688e+01  4.93155e+01  5.72770e+01
       O  4.70623e+01  5.02460e+01  5.73603e+01
       O  4.56727e+01  4.83883e+01  5.71963e+01
       C  2.65176e+01  1.83570e+01  5.28706e+00
       O  2.55562e+01  1.80622e+01  5.87015e+00
       O  2.74762e+01  1.86451e+01  4.69422e+00
       C  2.36261e+01  4.65725e+01  5.54674e+01
       O  2.32303e+01  4.55107e+01  5.57253e+01
       O  2.40084e+01  4.76380e+01  5.52041e+01
       C  3.96675e+01  5.20469e+01  3.95635e+01
       O  3.85597e+01  5.23971e+01  3.95500e+01
       O  4.07800e+01  5.17074e+01  3.95743e+01
       C  2.33442e+01  3.11351e+01  1.31935e+01
       O  2.26905e+01  3.20719e+01  1.34118e+01
       O  2.39998e+01  3.02001e+01  1.29737e+01
       C  3.97339e+01  1.86882e+01  2.00909e+01
       O  3.97454e+01  1.79115e+01  2.09566e+01
       O  3.97099e+01  1.94646e+01  1.92255e+01
       C  2.07790e+01  5.93533e+01  2.13289e+01
       O  2.14563e+01  5.88789e+01  2.21462e+01
       O  2.01078e+01  5.98374e+01  2.05122e+01
       C  5.16618e+01  6.19672e+00  1.24605e+01
       O  5.09110e+01  5.31090e+00  1.24253e+01
       O  5.24093e+01  7.08543e+00  1.25064e+01
       C  5.57491e+01  4.75892e+01  5.20351e+01
       O  5.63700e+01  4.66343e+01  5.22692e+01
       O  5.51276e+01  4.85447e+01  5.18067e+01
       C  3.12469e+01  6.03075e+01  2.55284e+01
       O  3.15979e+01  5.97291e+01  2.64730e+01
       O  3.08795e+01  6.08821e+01  2.45857e+01
       C  1.40579e+00  4.09768e+01  3.91839e+01
       O  6.61848e-01  4.01386e+01  3.94924e+01
       O  2.15500e+00  4.18104e+01  3.88724e+01
       C  1.42942e+00  4.37265e+01  2.29109e+00
       O  1.91011e+00  4.26952e+01  2.53015e+00
       O  9.50435e-01  4.47597e+01  2.05840e+00
       C  3.27184e+01  3.48843e+01  1.03827e+01
       O  3.36018e+01  3.56213e+01  1.02250e+01
       O  3.18268e+01  3.41545e+01  1.05355e+01
       C  4.54970e+01  4.90483e+01  1.15143e+01
       O  4.66357e+01  4.92332e+01  1.13786e+01
       O  4.43588e+01  4.88598e+01  1.16536e+01
       C  5.87155e+01  2.79037e+01  2.24213e+01
       O  5.87739e+01  2.88748e+01  2.17862e+01
       O  5.86517e+01  2.69247e+01  2.30446e+01
       C  4.15838e+01  3.22769e+01  2.67890e+01
       O  4.25230e+01  3.21334e+01  2.74579e+01
       O  4.06533e+01  3.24058e+01  2.61048e+01
       C  3.05570e+01  4.56508e+01  1.88456e+01
       O  3.12720e+01  4.63695e+01  1.94144e+01
       O  2.98551e+01  4.49163e+01  1.82792e+01
       C  3.90112e+01  6.38731e+00  2.27117e+01
       O  3.85802e+01  7.35729e+00  2.31850e+01
       O  3.94461e+01  5.41834e+00  2.22398e+01
       C  6.39433e+00  1.32117e+01  5.27309e+01
       O  7.19399e+00  1.37799e+01  5.33546e+01
       O  5.59441e+00  1.26327e+01  5.21176e+01
       C  4.50075e+01  3.56949e+01  5.24737e+01
       O  4.59269e+01  3.63618e+01  5.22250e+01
       O  4.40853e+01  3.50291e+01  5.27177e+01
       C  5.97342e+01  5.71623e+01  5.43841e+01
       O  5.99777e+01  5.82068e+01  5.39347e+01
       O  5.94939e+01  5.61205e+01  5.48405e+01
       C  4.45676e+00  1.08669e+01  3.02921e+01
       O  5.42387e+00  1.11011e+01  3.08936e+01
       O  3.48794e+00  1.06298e+01  2.96946e+01
       C  4.98456e+01  5.21142e+01  6.18735e+01
       O  5.07604e+01  5.28004e+01  6.16647e+01
       O  4.89237e+01  5.14292e+01  6.20545e+01
       C  4.00974e+01  6.78329e+00  5.66246e+01
       O  4.00741e+01  6.19442e+00  5.56232e+01
       O  4.01182e+01  7.37850e+00  5.76226e+01
       C  2.33192e+01  5.26944e+01  2.10342e+01
       O  2.24033e+01  5.25075e+01  2.03436e+01
       O  2.42309e+01  5.28718e+01  2.17341e+01
       C  4.38936e+00  2.15595e+01  5.53275e+01
       O  5.04075e+00  2.06185e+01  5.51206e+01
       O  3.75308e+00  2.25090e+01  5.55355e+01
       C  1.05107e+01  4.39618e+01  2.00742e+01
       O  1.16582e+01  4.39876e+01  1.98866e+01
       O  9.36446e+00  4.39459e+01  2.02674e+01
       C  6.04417e+00  1.28914e+01  4.29018e+01
       O  6.33027e+00  1.39306e+01  4.33381e+01
       O  5.75771e+00  1.18572e+01  4.24557e+01
       C  1.38190e+01  1.09052e+01  2.24770e+01
       O  1.26961e+01  1.06804e+01  2.22768e+01
       O  1.49434e+01  1.11243e+01  2.26806e+01
       C  9.84713e+00  4.13475e+01  7.78961e+00
       O  9.60850e+00  4.02250e+01  7.60702e+00
       O  1.00745e+01  4.24730e+01  7.96443e+00
       C  1.77211e+01  3.60871e+01  4.05270e+01
       O  1.85455e+01  3.52959e+01  4.03069e+01
       O  1.68953e+01  3.68725e+01  4.07554e+01
       C  3.32663e+01  2.92617e+01  6.45048e+00
       O  3.42060e+01  2.98255e+01  6.06225e+00
       O  3.23343e+01  2.87049e+01  6.86568e+00
       C  3.73673e+01  5.92543e+01  2.56150e+01
       O  3.63911e+01  5.97897e+01  2.59484e+01
       O  3.83398e+01  5.87042e+01  2.52915e+01
       C  4.76629e+01  3.05494e+01  2.13613e-01
       O  4.78815e+01  2.94099e+01  1.45457e-01
       O  4.74345e+01  3.16864e+01  3.01073e-01
       C  2.45894e+01  3.99394e+01  2.16307e+01
       O  2.49276e+01  4.10508e+01  2.16576e+01
       O  2.42573e+01  3.88259e+01  2.15916e+01
       C  4.85468e+01  5.97648e+01  4.94405e+01
       O  4.90634e+01  5.95311e+01  5.04553e+01
       O  4.80257e+01  5.99892e+01  4.84261e+01
       C  2.81758e+01  3.12060e+01  7.29046e+00
       O  2.93151e+01  3.14051e+01  7.17235e+00
       O  2.70363e+01  3.10131e+01  7.41552e+00
       C  5.80430e+01  4.21853e+01  1.70394e+01
       O  5.72964e+01  4.29944e+01  1.66664e+01
       O  5.87839e+01  4.13714e+01  1.74103e+01
       C  2.64771e+01  1.40463e+01  1.63149e+01
       O  2.71892e+01  1.48773e+01  1.59242e+01
       O  2.57573e+01  1.32241e+01  1.67088e+01
       C  5.43962e+01  3.05083e+01  2.17118e+01
       O  5.49672e+01  3.09749e+01  2.08131e+01
       O  5.38156e+01  3.00526e+01  2.26094e+01
       C  5.24631e+01  4.14101e+01  2.37524e+01
       O  5.34347e+01  4.19970e+01  2.40054e+01
       O  5.14912e+01  4.08227e+01  2.35038e+01
       C  1.03797e+01  2.81719e+01  4.37785e+01
       O  1.04338e+01  2.92364e+01  4.33121e+01
       O  1.03392e+01  2.71002e+01  4.42289e+01
       C  2.97815e+01  1.18506e+01  4.49156e+01
       O  3.03588e+01  1.09052e+01  4.52684e+01
       O  2.92135e+01  1.28029e+01  4.45687e+01
       C  4.74539e+00  1.29327e+01  5.94226e+01
       O  5.82721e+00  1.29902e+01  5.98453e+01
       O  3.66612e+00  1.28657e+01  5.89937e+01
       C  4.74734e+01  9.85093e+00  1.50802e+01
       O  4.65082e+01  9.52512e+00  1.45203e+01
       O  4.84477e+01  1.01709e+01  1.56288e+01
       C  2.55380e+01  4.09749e+00  4.50657e+01
       O  2.55570e+01  5.12213e+00  4.45175e+01
       O  2.55169e+01  3.06982e+00  4.56099e+01
       C  5.52359e+01  4.25397e+01  8.63668e+00
       O  5.41800e+01  4.20687e+01  8.52100e+00
       O  5.62948e+01  4.30006e+01  8.76107e+00
       C  2.72358e+01  6.93511e+00  8.37664e+00
       O  2.61881e+01  7.12660e+00  8.84201e+00
       O  2.82825e+01  6.75439e+00  7.90425e+00
       C  5.02842e+01  3.28203e+01  5.67890e+01
       O  5.11194e+01  3.20185e+01  5.68922e+01
       O  4.94458e+01  3.36186e+01  5.66941e+01
       C  5.25030e+01  1.03065e+01  2.68854e+01
       O  5.18437e+01  1.04924e+01  2.59467e+01
       O  5.31733e+01  1.01328e+01  2.78196e+01
       C  5.69496e+01  3.81552e+01  4.12672e+01
       O  5.80409e+01  3.85457e+01  4.13561e+01
       O  5.58554e+01  3.77724e+01  4.11808e+01
       C  3.00730e+01  5.34602e+01  5.94250e+01
       O  3.05426e+01  5.30877e+01  6.04206e+01
       O  2.95931e+01  5.38287e+01  5.84322e+01
       C  3.46603e+01  3.84499e+01  3.69552e+01
       O  3.56282e+01  3.82635e+01  3.75727e+01
       O  3.36930e+01  3.86183e+01  3.63328e+01
       C  3.49216e+01  5.77667e+01  2.82018e+01
       O  3.57516e+01  5.80419e+01  2.89698e+01
       O  3.40981e+01  5.74844e+01  2.74331e+01
       C  3.61608e+01  3.13447e+01  4.83013e+01
       O  3.72381e+01  3.17533e+01  4.81440e+01
       O  3.50795e+01  3.09468e+01  4.84578e+01
       C  5.60140e+01  5.23054e+01  1.84616e+01
       O  5.63780e+01  5.18691e+01  1.74475e+01
       O  5.56536e+01  5.27495e+01  1.94735e+01
       C  9.16071e+00  1.44514e+01  2.56257e+01
       O  9.51248e+00  1.40668e+01  2.66649e+01
       O  8.81836e+00  1.48389e+01  2.45840e+01
       C  5.48066e+01  9.71670e+00  3.69443e+01
       O  5.56035e+01  1.01236e+01  3.76863e+01
       O  5.40065e+01  9.30649e+00  3.62061e+01
       C  8.67975e+00  2.46165e+01  5.69936e+01
       O  9.64357e+00  2.50534e+01  5.65116e+01
       O  7.71428e+00  2.41752e+01  5.74671e+01
       C  4.10277e+01  2.80345e+01  6.69824e+00
       O  4.16484e+01  2.71488e+01  7.12412e+00
       O  4.04076e+01  2.89195e+01  6.27070e+00
       C  1.86164e+01  1.79741e+01  1.17313e+01
       O  1.78455e+01  1.75659e+01  1.24991e+01
       O  1.93868e+01  1.83900e+01  1.09671e+01
       C  3.32756e+01  5.48460e+01  3.42711e+01
       O  3.37283e+01  5.38311e+01  3.46122e+01
       O  3.28156e+01  5.58570e+01  3.39265e+01
       C  1.64165e+01  3.35069e+01  1.57398e+00
       O  1.72073e+01  3.34378e+01  2.42323e+00
       O  1.56174e+01  3.35740e+01  7.31771e-01
       C  2.01867e+01  5.58616e+01  1.40709e+00
       O  2.08332e+01  5.54688e+01  2.28957e+00
       O  1.95396e+01  5.62528e+01  5.24031e-01
       C  2.01627e+01  1.43096e+01  5.27019e+01
       O  1.96611e+01  1.32796e+01  5.28955e+01
       O  2.06703e+01  1.53403e+01  5.25256e+01
       C  5.07572e+01  2.26488e+01  4.36549e+01
       O  4.98876e+01  2.28038e+01  4.44095e+01
       O  5.16306e+01  2.24806e+01  4.29071e+01
       C  4.42197e+01  4.76634e+01  2.62506e+01
       O  4.42063e+01  4.67082e+01  2.69147e+01
       O  4.42065e+01  4.86317e+01  2.56062e+01
       C  1.46505e+01  5.02649e+01  3.19805e+01
       O  1.47519e+01  4.96015e+01  3.10312e+01
       O  1.45626e+01  5.09163e+01  3.29392e+01
       C  4.64633e+01  3.31638e+01  5.52973e+01
       O  4.66747e+01  3.21514e+01  5.58275e+01
       O  4.62543e+01  3.41770e+01  5.47677e+01
       C  1.93098e+01  2.94950e+01  4.02541e+01
       O  1.87556e+01  3.05182e+01  4.02563e+01
       O  1.98661e+01  2.84753e+01  4.02375e+01
       C  2.17943e+01  3.34988e+01  1.60543e+01
       O  2.17404e+01  3.24210e+01  1.64874e+01
       O  2.18590e+01  3.45792e+01  1.56289e+01
       C  5.16738e+01  4.80090e+01  3.69025e+01
       O  5.12233e+01  4.79826e+01  3.58306e+01
       O  5.21092e+01  4.80390e+01  3.79800e+01
       C  3.17396e+01  2.88803e+00  2.76211e+01
       O  3.06437e+01  2.62959e+00  2.73373e+01
       O  3.28352e+01  3.14149e+00  2.79188e+01
       C  4.14397e+01  2.13568e+01  4.05470e+01
       O  4.19391e+01  2.07483e+01  4.14029e+01
       O  4.09442e+01  2.19723e+01  3.96943e+01
       C  2.48072e+01  2.62267e+01  4.40553e+01
       O  2.40666e+01  2.57061e+01  4.33255e+01
       O  2.55423e+01  2.67390e+01  4.47969e+01
       C  2.45678e+01  5.12731e+01  1.42554e+01
       O  2.44044e+01  5.19456e+01  1.33207e+01
       O  2.47388e+01  5.06051e+01  1.51910e+01
       C  4.33649e+00  2.41399e+01  5.58083e+00
       O  5.09282e+00  2.45001e+01  6.38727e+00
       O  3.58189e+00  2.37752e+01  4.77392e+00
       C  9.55751e-01  3.43105e+01  6.66498e+00
       O  9.83908e-01  3.35825e+01  5.75899e+00
       O  9.27784e-01  3.50329e+01  7.57534e+00
       C  3.52075e+01  2.42557e+01  5.31402e+01
       O  3.55571e+01  2.52859e+01  5.27275e+01
       O  3.48567e+01  2.32247e+01  5.35471e+01
       C  7.32693e+00  3.66693e+01  5.45882e+01
       O  7.71516e+00  3.57057e+01  5.40644e+01
       O  6.94452e+00  3.76264e+01  5.51262e+01
       C  3.64991e+01  3.78812e+01  3.26020e+01
       O  3.72537e+01  3.75127e+01  3.17986e+01
       O  3.57422e+01  3.82542e+01  3.34020e+01
       C  5.13594e+01  1.14758e+01  5.67591e+01
       O  5.22921e+01  1.08309e+01  5.70125e+01
       O  5.04263e+01  1.21237e+01  5.65132e+01
       C  1.25812e+01  4.93695e+01  4.63606e+01
       O  1.23754e+01  5.05103e+01  4.64400e+01
       O  1.27798e+01  4.82274e+01  4.62828e+01
       C  4.00171e+01  2.72032e+01  2.64418e+01
       O  4.08589e+01  2.68704e+01  2.57113e+01
       O  3.91802e+01  2.75497e+01  2.71698e+01
       C  5.76668e+01  6.02518e+01  6.63570e+00
       O  5.69006e+01  5.93823e+01  6.70784e+00
       O  5.84280e+01  6.11250e+01  6.56499e+00
       C  4.43660e+01  1.73341e+00  1.62985e+01
       O  4.53859e+01  1.51565e+00  1.57839e+01
       O  4.33463e+01  1.95106e+00  1.68125e+01
       C  2.39101e+01  1.40740e+01  5.43180e+00
       O  2.30342e+01  1.33866e+01  5.09593e+00
       O  2.47841e+01  1.47577e+01  5.77695e+00
       C  1.82337e+01 -5.90062e-01  4.56223e+01
       O  1.71367e+01 -5.90607e-01  4.60062e+01
       O  1.93294e+01 -5.91932e-01  4.52362e+01
       C  4.53425e+01  5.66614e+01  5.01837e+01
       O  4.57467e+01  5.55775e+01  5.02938e+01
       O  4.49325e+01  5.77443e+01  5.00775e+01
       C  5.40033e+01  2.31473e+01  2.49799e+01
       O  5.29929e+01  2.30863e+01  2.44105e+01
       O  5.50144e+01  2.32092e+01  2.55495e+01
       C  1.80372e+01  4.69617e+01  1.84570e+01
       O  1.84722e+01  4.59003e+01  1.82736e+01
       O  1.75971e+01  4.80206e+01  1.86486e+01
       C  1.76882e+01  9.02681e+00  1.43975e+01
       O  1.80976e+01  1.00832e+01  1.41348e+01
       O  1.72629e+01  7.97690e+00  1.46597e+01
       C  1.97637e+01  2.94493e+01  6.97439e+00
       O  2.03589e+01  2.84905e+01  7.25769e+00
       O  1.91763e+01  3.04099e+01  6.68353e+00
       C  5.44405e+00  6.01526e+01  5.20005e+01
       O  4.42220e+00  5.97657e+01  5.23963e+01
       O  6.46927e+00  6.05439e+01  5.16168e+01
       C  4.18407e+01  4.23353e+01  5.01323e+01
       O  4.29137e+01  4.26818e+01  4.98512e+01
       O  4.07634e+01  4.19870e+01  5.03991e+01
       C  5.27619e+01  5.65731e+00  1.96263e+01
       O  5.37762e+01  5.92438e+00  2.01287e+01
       O  5.17482e+01  5.39282e+00  1.91232e+01
       C  5.02798e+01  1.59645e+01  4.27863e+01
       O  4.96344e+01  1.65697e+01  4.35399e+01
       O  5.09273e+01  1.53635e+01  4.20313e+01
       C  3.53022e+00  4.01998e+01  4.64836e+01
       O  3.81745e+00  4.10156e+01  4.57067e+01
       O  3.23121e+00  3.93901e+01  4.72621e+01
       C  1.24082e+01  3.38048e+01  1.35124e+01
       O  1.32087e+01  3.30943e+01  1.30567e+01
       O  1.16130e+01  3.45223e+01  1.39656e+01
       C  5.51967e+01  1.11190e+01  5.59109e+01
       O  5.53701e+01  1.11598e+01  5.70588e+01
       O  5.50462e+01  1.10468e+01  5.47597e+01
       C  3.68261e+01  1.57140e+00  7.20970e+00
       O  3.62243e+01  5.80567e-01  7.12297e+00
       O  3.74246e+01  2.56631e+00  7.27915e+00
       C  5.40928e+01  1.14394e+01  5.96410e+01
       O  5.44819e+01  1.03867e+01  5.99360e+01
       O  5.36879e+01  1.24920e+01  5.93470e+01
       C  2.09043e+01  5.49158e+00  6.05123e+01
       O  2.15172e+01  4.63701e+00  6.10086e+01
       O  2.02861e+01  6.34108e+00  6.00122e+01
       C  4.96008e+01  4.61376e+01  2.71967e+01
       O  4.84833e+01  4.62678e+01  2.69016e+01
       O  5.07159e+01  4.60058e+01  2.74967e+01
       C  6.09096e+01  2.26567e+01  4.83815e+01
       O  6.04361e+01  2.29141e+01  4.73507e+01
       O  6.13811e+01  2.23991e+01  4.94122e+01
       C  3.18630e+01  5.58287e+01  2.20696e+01
       O  3.26179e+01  5.66276e+01  2.16919e+01
       O  3.11189e+01  5.50166e+01  2.24414e+01
       C  1.46326e+01  1.77511e+01  2.33968e+01
       O  1.43766e+01  1.71860e+01  2.43806e+01
       O  1.48798e+01  1.83223e+01  2.24148e+01
       C  5.33380e+01  5.39546e+01  6.06172e+01
       O  5.29334e+01  5.40645e+01  5.95330e+01
       O  5.37637e+01  5.38474e+01  6.16924e+01
       C  3.54786e+01  3.80841e+01  2.36963e+01
       O  3.65831e+01  3.84261e+01  2.35749e+01
       O  3.43771e+01  3.77350e+01  2.38162e+01
       C  1.54353e+01  2.83649e+01  1.16984e+01
       O  1.60944e+01  2.93053e+01  1.18761e+01
       O  1.47710e+01  2.74290e+01  1.15204e+01
       C  4.27543e+01  3.34695e+01  5.50455e+01
       O  4.34857e+01  3.25829e+01  5.48732e+01
       O  4.20293e+01  3.43600e+01  5.52282e+01
       C  2.71455e+01  4.73001e+01  3.52775e+01
       O  2.63802e+01  4.81627e+01  3.51343e+01
       O  2.79118e+01  4.64380e+01  3.54258e+01
       C  4.16134e+01  9.20723e+00  1.06484e+01
       O  4.11140e+01  8.38525e+00  1.13022e+01
       O  4.21070e+01  1.00286e+01  9.98931e+00
       C  4.99862e+00  3.46271e+01  7.90834e+00
       O  4.12951e+00  3.43523e+01  7.18765e+00
       O  5.85008e+00  3.48979e+01  8.65313e+00
       C  2.87001e+01  2.65921e+01  4.48084e+01
       O  2.88588e+01  2.75087e+01  4.55058e+01
       O  2.85349e+01  2.56763e+01  4.41113e+01
       C  1.26963e+01  3.59551e+01  2.21329e+00
       O  1.37408e+01  3.62542e+01  1.80113e+00
       O  1.16497e+01  3.56621e+01  2.62927e+00
       C  9.11873e+00  3.31088e+01  1.11804e+00
       O  1.02661e+01  3.31304e+01  9.29277e-01
       O  7.97061e+00  3.31095e+01  1.30095e+00
       C  8.27442e-01  5.45849e+01  5.26289e+01
       O  4.84290e-01  5.56217e+01  5.22293e+01
       O  1.16127e+00  5.35498e+01  5.30404e+01
       C  3.59506e+01  1.33950e+01  4.03717e+01
       O  3.63753e+01  1.43891e+01  3.99449e+01
       O  3.55363e+01  1.23975e+01  4.08016e+01
       C  5.19054e+01  1.30206e+01  1.88865e+01
       O  5.25188e+01  1.25822e+01  1.97730e+01
       O  5.12903e+01  1.34684e+01  1.80092e+01
       C  3.00828e+01  1.02763e+01  3.13908e+01
       O  2.99749e+01  1.12605e+01  3.07828e+01
       O  3.01896e+01  9.28943e+00  3.19964e+01
       C  3.43197e+00  3.96902e+01  5.12958e+01
       O  2.98231e+00  4.07144e+01  5.16130e+01
       O  3.88090e+00  3.86666e+01  5.09774e+01
       C  1.89661e+01  5.72632e+01  1.23657e+01
       O  1.85103e+01  5.65499e+01  1.31629e+01
       O  1.94233e+01  5.79797e+01  1.15726e+01
       C  1.30770e+01  3.01710e+01  1.73405e+01
       O  1.41729e+01  3.04589e+01  1.70812e+01
       O  1.19822e+01  2.98793e+01  1.76027e+01
       C  3.87577e+01  2.69936e+01  1.68360e+01
       O  3.82945e+01  2.59406e+01  1.66848e+01
       O  3.92169e+01  2.80501e+01  1.69956e+01
       C  2.82046e+00  5.23708e+00  2.66614e+01
       O  3.87224e+00  4.76166e+00  2.65229e+01
       O  1.76966e+00  5.71373e+00  2.68029e+01
       C  4.43568e+01  5.39742e+01  4.58722e+01
       O  4.42781e+01  5.32070e+01  4.67414e+01
       O  4.44502e+01  5.47416e+01  4.50040e+01
       C  2.67842e+01  1.65242e+00  1.95536e+01
       O  2.56619e+01  1.93518e+00  1.94401e+01
       O  2.79075e+01  1.37568e+00  1.96692e+01
       C  3.24192e+01  1.33585e+01  4.22768e+01
       O  3.13937e+01  1.30134e+01  4.18529e+01
       O  3.34400e+01  1.37114e+01  4.27067e+01
       C  3.75876e+01  2.56599e+01  7.86769e+00
       O  3.64695e+01  2.53555e+01  7.78505e+00
       O  3.87060e+01  2.59636e+01  7.96167e+00
       C  3.96273e+01  1.07175e+01  4.51036e+01
       O  3.97858e+01  9.96539e+00  4.42306e+01
       O  3.94591e+01  1.14701e+01  4.59740e+01
       C  5.10795e+01  4.61395e+01  3.10419e+01
       O  5.19454e+01  4.68016e+01  3.14494e+01
       O  5.02206e+01  4.54761e+01  3.06247e+01
       C  5.79084e+01  7.48875e+00  4.51728e+01
       O  5.80604e+01  8.00388e+00  4.62038e+01
       O  5.77682e+01  6.97397e+00  4.41398e+01
       C  4.56846e+01  3.63344e+01  5.53278e+00
       O  4.57018e+01  3.51889e+01  5.33343e+00
       O  4.56712e+01  3.74765e+01  5.75238e+00
       C  2.26509e+01  5.07890e+01  1.08835e+01
       O  2.24973e+01  5.00246e+01  1.17457e+01
       O  2.27999e+01  5.15419e+01  1.00102e+01
       C  2.53401e+01  6.10223e+01  3.29819e+01
       O  2.60239e+01  6.01103e+01  3.31856e+01
       O  2.46543e+01  6.19404e+01  3.27577e+01
       C  4.54855e+01  4.56270e+01  4.51089e+01
       O  4.58530e+01  4.62775e+01  4.59989e+01
       O  4.51136e+01  4.49865e+01  4.42129e+01
       C  3.86285e+01  2.25878e+01  2.79264e+01
       O  3.81832e+01  2.18188e+01  2.71769e+01
       O  3.90845e+01  2.33488e+01  2.86777e+01
       C  4.83876e+01  1.38720e+01  3.53834e+01
       O  4.82765e+01  1.27147e+01  3.53674e+01
       O  4.84918e+01  1.50299e+01  3.53943e+01
       C  2.65595e+01  5.97958e+01  5.72538e+01
       O  2.67650e+01  6.04248e+01  5.62973e+01
       O  2.63534e+01  5.91620e+01  5.82070e+01
       C  4.00189e+00  4.67366e+01  2.43056e+01
       O  3.12297e+00  4.60423e+01  2.46130e+01
       O  4.87971e+00  4.74336e+01  2.39969e+01
       C  1.49001e+01  3.25096e+01  3.10440e+01
       O  1.43582e+01  3.15236e+01  3.07536e+01
       O  1.54336e+01  3.35009e+01  3.13343e+01
       C  1.25463e+01  4.25911e+01  6.12705e+00
       O  1.18384e+01  4.21913e+01  5.29603e+00
       O  1.32527e+01  4.29734e+01  6.96760e+00
       C  3.77959e+01  1.40059e+01  4.60188e+01
       O  3.82413e+01  1.42793e+01  4.49799e+01
       O  3.73484e+01  1.37323e+01  4.70561e+01
       C  3.32455e+01  9.83930e+00  4.43541e+01
       O  3.29830e+01  1.06141e+01  4.35275e+01
       O  3.35179e+01  9.08261e+00  4.51938e+01
       C  4.50266e+01  5.52823e+01  3.18194e+01
       O  4.60772e+01  5.54261e+01  3.22955e+01
       O  4.39730e+01  5.51294e+01  3.13480e+01
       C  5.26514e+01  5.79235e+01  5.50863e+01
       O  5.35005e+01  5.87189e+01  5.51235e+01
       O  5.18034e+01  5.71298e+01  5.50458e+01
       C  4.77367e+01  2.36551e+01  9.36060e+00
       O  4.88691e+01  2.39201e+01  9.36201e+00
       O  4.66051e+01  2.33891e+01  9.36608e+00
       C  1.94019e+01  3.19960e+01  3.87685e+00
       O  1.90089e+01  3.09969e+01  3.43112e+00
       O  1.98119e+01  3.29890e+01  4.32267e+00
       C  3.22300e+01  3.73726e+01  3.99933e+01
       O  3.33421e+01  3.77032e+01  3.99285e+01
       O  3.11199e+01  3.70348e+01  4.00635e+01
       C  3.10774e+00  5.13255e+01  3.88839e+01
       O  2.33540e+00  5.14238e+01  3.80211e+01
       O  3.89475e+00  5.12293e+01  3.97353e+01
       C  4.07757e+01  1.25268e+01  6.19019e+01
       O  4.03946e+01  1.14318e+01  6.19746e+01
       O  4.11539e+01  1.36229e+01  6.18330e+01
       C  4.23693e+01  3.68564e+00  5.54070e+01
       O  4.31406e+01  3.85648e+00  5.45545e+01
       O  4.15990e+01  3.51883e+00  5.62624e+01
       C  5.32460e+01  1.60416e+01  4.56865e+01
       O  5.33138e+01  1.55409e+01  4.67335e+01
       O  5.31855e+01  1.65605e+01  4.46476e+01