5186
# CELL(abcABC):   91.81000    91.81000    91.81000    90.00000    90.00000    90.00000  Step:         300  Bead:       0 x_centroid{angstrom}  cell{atomic_unit}
       C  1.63871e+01  4.63324e+01  2.89272e+01
       O  1.73177e+01  4.63044e+01  2.96234e+01
       O  1.54448e+01  4.63386e+01  2.82447e+01
       C  3.65786e+01  3.41040e+01  2.83358e+01
       O  3.68462e+01  3.38531e+01  2.94390e+01
       O  3.63004e+01  3.43664e+01  2.72380e+01
       C  7.18721e+00  3.34248e+01  3.79724e+01
       O  6.91727e+00  3.24777e+01  3.85907e+01
       O  7.44691e+00  3.43688e+01  3.73450e+01
       C  3.91695e+01  1.88332e+01  2.14096e+01
       O  3.93946e+01  1.98793e+01  2.18662e+01
       O  3.89492e+01  1.77896e+01  2.09462e+01
       C  1.23337e+01  1.82555e+01  4.86849e+01
       O  1.28831e+01  1.90615e+01  4.80507e+01
       O  1.17870e+01  1.74562e+01  4.93281e+01
       C  4.46192e+01  2.76810e+01  4.13132e+01
       O  4.57366e+01  2.77447e+01  4.16278e+01
       O  4.35053e+01  2.76204e+01  4.09854e+01
       C  3.03907e+01  7.42856e+00  1.28755e+01
       O  3.00644e+01  8.40060e+00  1.23260e+01
       O  3.06997e+01  6.45746e+00  1.34349e+01
       C  1.67043e+01  4.47891e+01  1.91568e+01
       O  1.58406e+01  4.40280e+01  1.93240e+01
       O  1.75682e+01  4.55484e+01  1.89909e+01
       C  1.80542e+01  1.23199e+01  4.73929e+01
       O  1.77582e+01  1.13979e+01  4.67489e+01
       O  1.83593e+01  1.32414e+01  4.80310e+01
       C  1.45823e+01  4.24395e+01  4.77955e+01
       O  1.52304e+01  4.24588e+01  4.68291e+01
       O  1.39357e+01  4.24099e+01  4.87615e+01
       C  1.42215e+01  2.71353e+01  4.12274e+01
       O  1.52314e+01  2.70406e+01  4.06624e+01
       O  1.32161e+01  2.72231e+01  4.18065e+01
       C  4.62026e+01  4.69739e+01  4.15818e+01
       O  4.57634e+01  4.59122e+01  4.17618e+01
       O  4.66469e+01  4.80333e+01  4.14042e+01
       C  8.50585e+00  1.97904e+01  3.59642e+01
       O  9.18228e+00  1.94286e+01  3.50911e+01
       O  7.82431e+00  2.01319e+01  3.68417e+01
       C  4.48386e+01  3.81190e+01  2.79046e+01
       O  4.51583e+01  3.73604e+01  2.70839e+01
       O  4.44964e+01  3.88850e+01  2.87084e+01
       C  7.49966e+00  2.69790e+01  4.61345e+01
       O  7.38237e+00  2.65682e+01  4.50530e+01
       O  7.61915e+00  2.74002e+01  4.72117e+01
       C  2.49659e+01  2.41396e+01  1.58924e+01
       O  2.40187e+01  2.35976e+01  1.62941e+01
       O  2.59231e+01  2.46639e+01  1.54942e+01
       C  1.03872e+00  4.32931e+01  4.71188e+01
       O  1.92242e+00  4.38204e+01  4.76592e+01
       O  1.48500e-01  4.27747e+01  4.65790e+01
       C  4.65697e+01  2.35411e+01  2.43355e+01
       O  4.75719e+01  2.29886e+01  2.41290e+01
       O  4.55747e+01  2.41008e+01  2.45551e+01
       C  2.34688e+00  2.02420e+01  1.55833e+01
       O  2.07079e+00  1.97410e+01  1.45706e+01
       O  2.61392e+00  2.07544e+01  1.65923e+01
       C  1.93100e+01  1.90306e+01  2.07888e+01
       O  1.97281e+01  1.97949e+01  2.00189e+01
       O  1.88712e+01  1.82669e+01  2.15475e+01
       C  3.60435e+01  2.40291e+00  3.31631e+01
       O  3.53466e+01  3.31560e+00  3.33482e+01
       O  3.67419e+01  1.48968e+00  3.29953e+01
       C  8.37355e+00  4.48967e+01  1.18211e+01
       O  7.63891e+00  4.57915e+01  1.19267e+01
       O  9.09391e+00  4.39904e+01  1.17159e+01
       C  1.87549e+01  1.13667e+01  5.17627e+00
       O  1.80996e+01  1.18594e+01  6.00072e+00
       O  1.94157e+01  1.08742e+01  4.35586e+00
       C  2.84219e+01  2.40624e+01  2.24780e+01
       O  2.83700e+01  2.51720e+01  2.28237e+01
       O  2.84658e+01  2.29604e+01  2.21112e+01
       C  3.93121e+01  3.44934e+01  3.84744e+01
       O  3.98243e+01  3.54913e+01  3.81663e+01
       O  3.88032e+01  3.34937e+01  3.87768e+01
       C  5.31783e+00  1.83248e+01  2.05757e+01
       O  5.44259e+00  1.88189e+01  2.16212e+01
       O  5.19589e+00  1.78298e+01  1.95311e+01
       C  9.67138e+00  3.93573e+01  1.72282e+01
       O  8.54922e+00  3.96421e+01  1.73360e+01
       O  1.07979e+01  3.90903e+01  1.71249e+01
       C  3.02656e+01  4.49440e+01  4.11529e+01
       O  3.10287e+01  4.57405e+01  4.07868e+01
       O  2.95067e+01  4.41430e+01  4.15209e+01
       C  1.38741e+01  4.78603e+01  7.47748e+00
       O  1.38446e+01  4.79380e+01  8.63773e+00
       O  1.38985e+01  4.77657e+01  6.31855e+00
       C  1.77989e+01  1.55757e+01  4.95426e+01
       O  1.82890e+01  1.62383e+01  4.87215e+01
       O  1.72935e+01  1.49263e+01  5.03647e+01
       C  4.30859e+01  1.86976e+01  9.63628e+00
       O  4.40567e+01  1.90666e+01  1.01589e+01
       O  4.21158e+01  1.83184e+01  9.11947e+00
       C  3.02224e+01  4.18430e+01  2.97718e+00
       O  3.07017e+01  4.09519e+01  2.40460e+00
       O  2.97416e+01  4.27407e+01  3.53885e+00
       C  1.01408e+01  4.89923e+01  4.79228e+00
       O  9.48705e+00  4.95994e+01  4.04707e+00
       O  1.07854e+01  4.83787e+01  5.54099e+00
       C  1.55020e+01  4.82039e+01  3.52605e+01
       O  1.63187e+01  4.88615e+01  3.47560e+01
       O  1.46747e+01  4.75525e+01  3.57536e+01
       C  1.65444e+01  4.33316e-01  3.90034e+01
       O  1.55328e+01  1.27208e-02  3.86159e+01
       O  1.75546e+01  8.59826e-01  3.93915e+01
       C  4.45193e+01  1.28406e+01  3.53746e+01
       O  4.36406e+01  1.35459e+01  3.56600e+01
       O  4.53926e+01  1.21317e+01  3.50811e+01
       C  1.89641e+01  1.76324e+01  3.86785e+01
       O  1.95323e+01  1.86398e+01  3.85556e+01
       O  1.84281e+01  1.66101e+01  3.88177e+01
       C  9.15548e+00  1.05434e+01  1.95281e+01
       O  8.11631e+00  1.01505e+01  1.91831e+01
       O  1.01906e+01  1.09436e+01  1.98753e+01
       C  2.42252e+01  8.13099e+00  3.22847e+01
       O  2.45756e+01  8.82907e+00  3.31456e+01
       O  2.38759e+01  7.43150e+00  3.14251e+01
       C  3.29472e+01  3.24805e+01  4.40632e+00
       O  3.37383e+01  3.19968e+01  5.10707e+00
       O  3.21570e+01  3.29710e+01  3.70824e+00
       C  4.35884e+01  3.33511e+01  1.63210e+01
       O  4.28283e+01  3.25047e+01  1.65614e+01
       O  4.43456e+01  3.41992e+01  1.60732e+01
       C  1.92202e+01  1.55811e+01  3.30160e+01
       O  1.82424e+01  1.61927e+01  3.28689e+01
       O  2.01973e+01  1.49685e+01  3.31598e+01
       C  4.23167e+01  1.12928e+01  2.17538e+00
       O  4.13403e+01  1.18581e+01  2.45678e+00
       O  4.32963e+01  1.07345e+01  1.89266e+00
       C  3.70636e+01  2.67973e+01  4.52826e+01
       O  3.60668e+01  2.73590e+01  4.50786e+01
       O  3.80621e+01  2.62365e+01  4.54854e+01
       C  3.79012e+01  2.80232e+01  3.30247e+01
       O  3.73078e+01  2.77514e+01  3.20619e+01
       O  3.85013e+01  2.83048e+01  3.39803e+01
       C  3.89430e+01  3.52057e+01  3.48332e+01
       O  3.93478e+01  3.42047e+01  3.52658e+01
       O  3.85306e+01  3.62106e+01  3.44181e+01
       C  2.37211e+01  1.66226e+01  2.94250e+01
       O  2.26204e+01  1.67575e+01  2.97763e+01
       O  2.48207e+01  1.64946e+01  2.90681e+01
       C  7.98862e+00  4.00099e+01  3.09979e+01
       O  8.23605e+00  3.90381e+01  3.04065e+01
       O  7.74928e+00  4.09796e+01  3.15937e+01
       C  1.47995e+01  4.44416e+01  4.23417e+01
       O  1.51732e+01  4.49175e+01  4.13484e+01
       O  1.44297e+01  4.39539e+01  4.33305e+01
       C  3.86572e+01  3.89389e+01  2.19363e+01
       O  3.79590e+01  3.80465e+01  2.21968e+01
       O  3.93566e+01  3.98272e+01  2.16703e+01
       C  2.73014e+01  6.99121e+00  4.91808e+01
       O  2.84312e+01  7.25788e+00  4.92423e+01
       O  2.61745e+01  6.71516e+00  4.91153e+01
       C  1.41670e+01  2.07158e+01  3.25844e+01
       O  1.51489e+01  2.07534e+01  3.19631e+01
       O  1.31837e+01  2.06839e+01  3.32047e+01
       C  2.79859e+01  4.47314e+01  1.85239e+00
       O  2.88063e+01  4.51898e+01  1.16804e+00
       O  2.71609e+01  4.42702e+01  2.53033e+00
       C  1.13028e+01  3.80497e+01  6.32370e+00
       O  1.01728e+01  3.78911e+01  6.09905e+00
       O  1.24327e+01  3.82104e+01  6.54889e+00
       C  1.26839e+01  6.21800e+00  2.35744e+01
       O  1.15277e+01  6.30485e+00  2.34854e+01
       O  1.38389e+01  6.11861e+00  2.36582e+01
       C  3.90031e+01  4.24761e+01  2.30424e+01
       O  3.94728e+01  4.30746e+01  2.21636e+01
       O  3.85504e+01  4.18728e+01  2.39283e+01
       C  3.94342e+01  2.42349e+00  1.61277e+01
       O  3.89402e+01  1.54706e+00  1.67104e+01
       O  3.99225e+01  3.29750e+00  1.55365e+01
       C  1.92275e+01  2.70013e+01  3.41952e+01
       O  1.96518e+01  2.74726e+01  3.32200e+01
       O  1.87832e+01  2.65264e+01  3.51586e+01
       C  1.75540e+01  2.52481e+01  4.08333e+01
       O  1.82590e+01  2.60594e+01  4.12750e+01
       O  1.68533e+01  2.44299e+01  4.03931e+01
       C  1.97519e+01  2.55888e+01  2.48134e+00
       O  1.96978e+01  2.45132e+01  2.04391e+00
       O  1.98143e+01  2.66658e+01  2.91667e+00
       C  2.69452e+01  9.48629e+00  4.06192e+01
       O  2.69118e+01  1.03702e+01  4.13731e+01
       O  2.69592e+01  8.60535e+00  3.98594e+01
       C  4.34282e+01  1.53678e+01  4.44494e+01
       O  4.32962e+01  1.62764e+01  4.37353e+01
       O  4.35523e+01  1.44474e+01  4.51492e+01
       C  4.38144e+01  3.76187e+00  4.63218e+01
       O  4.27422e+01  3.39855e+00  4.60574e+01
       O  4.48852e+01  4.14479e+00  4.65637e+01
       C  2.03803e+01  2.92106e+01  1.41506e+00
       O  1.93674e+01  2.96480e+01  1.78326e+00
       O  2.13894e+01  2.87798e+01  1.03145e+00
       C  1.83842e+01  5.83181e+00  4.10596e+01
       O  1.90291e+01  4.91244e+00  4.13634e+01
       O  1.77496e+01  6.74965e+00  4.07342e+01
       C  2.24823e+01  2.65237e+01  4.33303e+00
       O  2.23273e+01  2.54224e+01  4.67224e+00
       O  2.26398e+01  2.76253e+01  3.99607e+00
       C  2.09666e+01  7.88033e+00  3.44249e+01
       O  2.14217e+01  8.01129e+00  3.33624e+01
       O  2.05205e+01  7.74687e+00  3.54909e+01
       C  1.67689e+01  3.21340e+01  6.24000e+00
       O  1.58998e+01  3.27154e+01  6.74894e+00
       O  1.76288e+01  3.15446e+01  5.72380e+00
       C  3.35806e+01  3.67359e+01  3.30848e+01
       O  3.27223e+01  3.72823e+01  3.25212e+01
       O  3.44522e+01  3.61931e+01  3.36311e+01
       C  3.10142e+01  4.91330e+01  1.34906e+01
       O  3.15715e+01  4.92262e+01  1.24745e+01
       O  3.04620e+01  4.90376e+01  1.45096e+01
       C  6.97634e+00  3.59131e+01  4.06426e+01
       O  7.77360e+00  3.50927e+01  4.04320e+01
       O  6.17566e+00  3.67343e+01  4.08346e+01
       C  2.29691e+01  3.31685e+00  3.54195e+01
       O  2.40551e+01  3.63883e+00  3.51550e+01
       O  2.18823e+01  2.99379e+00  3.56721e+01
       C  4.13326e+00  1.51454e+01  3.89669e+01
       O  5.00814e+00  1.49691e+01  3.97125e+01
       O  3.25467e+00  1.53279e+01  3.82279e+01
       C  3.73953e+01  1.84077e+01  1.66132e+01
       O  3.65074e+01  1.78926e+01  1.60668e+01
       O  3.82822e+01  1.89319e+01  1.71527e+01
       C  4.22914e+01  4.20663e+01  1.46012e+01
       O  4.22482e+01  4.32004e+01  1.48530e+01
       O  4.23355e+01  4.09342e+01  1.43401e+01
       C  3.67098e+01  4.04464e+01  1.89833e+01
       O  3.72006e+01  3.93925e+01  1.89372e+01
       O  3.62268e+01  4.15039e+01  1.90134e+01
       C  1.41211e+01  4.60389e+01  3.87437e+01
       O  1.51095e+01  4.55976e+01  3.83193e+01
       O  1.31164e+01  4.64537e+01  3.91540e+01
       C  3.35372e+01  4.02661e+01  8.56535e+00
       O  3.45610e+01  3.97182e+01  8.50312e+00
       O  3.25154e+01  4.08181e+01  8.62270e+00
       C  4.70210e+01  6.02147e+00  4.77407e+01
       O  4.78690e+01  5.37684e+00  4.72760e+01
       O  4.61771e+01  6.66778e+00  4.82122e+01
       C  2.40657e+01  2.48613e+01  1.91136e+01
       O  2.35061e+01  2.40452e+01  1.97223e+01
       O  2.46303e+01  2.56806e+01  1.85107e+01
       C  4.58225e+00  2.53591e+01  3.71925e+01
       O  5.53620e+00  2.53626e+01  3.65283e+01
       O  3.62929e+00  2.53654e+01  3.78580e+01
       C  2.97621e+01  2.90099e+01  2.93095e+01
       O  2.97235e+01  2.95755e+01  3.03245e+01
       O  2.97983e+01  2.84572e+01  2.82869e+01
       C  4.05946e+01  3.84587e+01  1.49698e+00
       O  4.04747e+01  3.73067e+01  1.39611e+00
       O  4.07580e+01  3.96031e+01  1.63601e+00
       C  4.94502e+00  2.70877e+01  2.34542e+01
       O  5.81405e+00  2.77810e+01  2.37942e+01
       O  4.06317e+00  2.64113e+01  2.31126e+01
       C  1.98366e+01  1.66002e+01  4.56573e+01
       O  1.95051e+01  1.56556e+01  4.50654e+01
       O  2.01562e+01  1.75419e+01  4.62604e+01
       C  4.08873e+01 -1.74848e+00  4.75159e+01
       O  4.08628e+01 -1.29019e+00  4.64463e+01
       O  4.09060e+01 -2.21560e+00  4.85802e+01
       C  1.31107e+01  3.10372e+01  6.20903e+00
       O  1.36626e+01  3.00634e+01  6.52522e+00
       O  1.25742e+01  3.20199e+01  5.89693e+00
       C  1.43273e+01 -4.17988e-01  2.41104e+01
       O  1.50309e+01 -3.24045e-01  2.50307e+01
       O  1.36414e+01 -5.30052e-01  2.31773e+01
       C  3.64774e+01  9.34597e+00  4.05683e+01
       O  3.66217e+01  9.55926e+00  4.17027e+01
       O  3.63264e+01  9.11859e+00  3.94382e+01
       C  1.36969e+01  9.52005e+00  1.17344e+01
       O  1.34335e+01  9.17220e+00  1.06565e+01
       O  1.39669e+01  9.87215e+00  1.28098e+01
       C  4.32017e+01  6.15814e-01  9.73031e+00
       O  4.30125e+01 -1.12627e-01  8.84461e+00
       O  4.33933e+01  1.34359e+00  1.06169e+01
       C  3.42777e+01  3.98977e+01  4.42749e+01
       O  3.51441e+01  4.01729e+01  4.49993e+01
       O  3.34196e+01  3.96177e+01  4.35422e+01
       C  2.56879e+01  2.71610e+00  3.50535e+00
       O  2.66513e+01  3.22123e+00  3.91584e+00
       O  2.47276e+01  2.20675e+00  3.09361e+00
       C  6.76941e+00  2.35657e+01  3.88372e+01
       O  5.99873e+00  2.27854e+01  3.84509e+01
       O  7.52004e+00  2.43714e+01  3.92085e+01
       C  3.12007e+01  1.66358e+01  2.55339e+01
       O  3.16605e+01  1.59110e+01  2.47501e+01
       O  3.07511e+01  1.73742e+01  2.63126e+01
       C  2.82263e+01  4.68757e+01  1.20369e+01
       O  2.71819e+01  4.63945e+01  1.22101e+01
       O  2.92737e+01  4.73441e+01  1.18573e+01
       C  4.21508e+01  3.58504e+01  4.51698e+01
       O  4.29893e+01  3.66556e+01  4.52079e+01
       O  4.13073e+01  3.50529e+01  4.51201e+01
       C  2.78758e+01  3.20674e+01  4.05940e+01
       O  2.78340e+01  3.10464e+01  4.00381e+01
       O  2.79106e+01  3.30897e+01  4.11481e+01
       C  3.38430e+01  4.46550e+01  3.24471e+01
       O  3.49985e+01  4.47582e+01  3.23821e+01
       O  3.26859e+01  4.45483e+01  3.25046e+01
       C  3.36890e+01  2.01414e+01  4.25388e+01
       O  3.33422e+01  1.91421e+01  4.20569e+01
       O  3.40350e+01  2.11394e+01  4.30253e+01
       C  4.42534e+01  1.84333e+01  4.70176e+01
       O  4.46151e+01  1.75975e+01  4.62939e+01
       O  4.38915e+01  1.92701e+01  4.77398e+01
       C  2.02061e+01  2.29895e+01  4.21098e+01
       O  2.06107e+01  2.27626e+01  4.31771e+01
       O  1.97982e+01  2.32021e+01  4.10427e+01
       C  9.76603e+00  2.23855e+01  3.27259e+01
       O  1.06587e+01  2.30024e+01  3.23093e+01
       O  8.86860e+00  2.17740e+01  3.31415e+01
       C  3.18454e+01  1.05154e+01  2.37587e+01
       O  3.09972e+01  9.95962e+00  2.31898e+01
       O  3.26969e+01  1.10672e+01  2.43284e+01
       C  1.39348e+01  8.87930e+00  1.93740e+01
       O  1.50392e+01  8.88902e+00  1.97396e+01
       O  1.28296e+01  8.85688e+00  1.90108e+01
       C  3.76405e+01  1.16045e+01  2.80385e+00
       O  3.75496e+01  1.06177e+01  2.19694e+00
       O  3.77229e+01  1.25877e+01  3.41905e+00
       C  1.64948e+01  4.14370e+01  8.93793e+00
       O  1.69852e+01  4.22306e+01  8.24445e+00
       O  1.59940e+01  4.06647e+01  9.64751e+00
       C  1.94687e+01  4.52176e+01  1.09941e+01
       O  1.95972e+01  4.41299e+01  1.06023e+01
       O  1.93500e+01  4.63083e+01  1.13762e+01
       C  9.09630e+00  2.16068e+00  3.19096e+01
       O  8.73887e+00  2.44677e+00  3.29776e+01
       O  9.41634e+00  1.88286e+00  3.08262e+01
       C  3.49026e+00  4.51039e+01  3.21677e+00
       O  4.03477e+00  4.55674e+01  2.30020e+00
       O  2.95144e+00  4.46406e+01  4.13733e+00
       C  3.92483e+01  4.00824e+01  4.16588e+01
       O  3.82446e+01  4.05917e+01  4.13682e+01
       O  4.02513e+01  3.95559e+01  4.19201e+01
       C  3.11687e+00  4.76115e+01  6.02433e+00
       O  2.22396e+00  4.80493e+01  5.42016e+00
       O  4.01950e+00  4.71971e+01  6.62682e+00
       C  3.52309e+01  4.01749e+01  3.32065e+01
       O  3.52011e+01  4.10864e+01  3.39282e+01
       O  3.52527e+01  3.92580e+01  3.24902e+01
       C  1.36746e+01  3.42705e+01  4.10293e+01
       O  1.39464e+01  3.40044e+01  3.99309e+01
       O  1.33970e+01  3.45117e+01  4.21317e+01
       C  1.83622e+01  1.66335e+01  2.39488e+01
       O  1.79435e+01  1.76222e+01  2.43953e+01
       O  1.87662e+01  1.56398e+01  2.34988e+01
       C  1.08460e+01  4.83260e+01  2.59759e+01
       O  1.19191e+01  4.86458e+01  2.56619e+01
       O  9.77286e+00  4.80232e+01  2.63041e+01
       C  5.70449e+00  1.26484e+01  4.16147e+01
       O  5.72901e+00  1.18263e+01  4.07924e+01
       O  5.67206e+00  1.34698e+01  4.24361e+01
       C  4.51926e+01  2.21822e+01  1.10222e+01
       O  4.42108e+01  2.22435e+01  1.16435e+01
       O  4.61799e+01  2.21320e+01  1.04107e+01
       C  2.21457e+01  1.29549e+01  2.88892e+01
       O  2.13395e+01  1.21854e+01  2.85588e+01
       O  2.29598e+01  1.37177e+01  2.92167e+01
       C  4.69703e+01  1.88821e+01  3.60226e+01
       O  4.73015e+01  1.78720e+01  3.55519e+01
       O  4.66396e+01  1.98903e+01  3.64980e+01
       C  2.88207e+01  4.25572e+01  2.17227e+01
       O  2.99803e+01  4.26449e+01  2.17207e+01
       O  2.76612e+01  4.24772e+01  2.17039e+01
       C  2.67424e+01  1.41041e+01  9.77402e+00
       O  2.58662e+01  1.41954e+01  9.01470e+00
       O  2.76237e+01  1.40050e+01  1.05261e+01
       C  9.61970e+00  3.03364e+01  3.69767e+01
       O  9.66071e+00  2.91764e+01  3.69152e+01
       O  9.56984e+00  3.14966e+01  3.70414e+01
       C  3.23866e+01  4.97963e+00  3.55599e+01
       O  3.33391e+01  5.63441e+00  3.54361e+01
       O  3.14437e+01  4.30988e+00  3.56857e+01
       C  3.29561e+00  3.46090e+01  3.89940e+01
       O  2.13452e+00  3.46556e+01  3.89536e+01
       O  4.45732e+00  3.45643e+01  3.90387e+01
       C  1.84632e+01  4.23728e+01  5.46942e+00
       O  1.84146e+01  4.12384e+01  5.21804e+00
       O  1.85048e+01  4.35071e+01  5.71996e+00
       C  3.75172e+01  6.47190e+00  3.30576e+01
       O  3.77148e+01  6.57778e+00  3.41976e+01
       O  3.73098e+01  6.36766e+00  3.19179e+01
       C  3.84097e+01  1.91778e+01  4.65923e+01
       O  3.88763e+01  1.88328e+01  4.55849e+01
       O  3.79405e+01  1.95100e+01  4.76031e+01
       C  2.87010e+01  1.90027e+01  3.56400e+01
       O  2.83437e+01  2.01028e+01  3.55265e+01
       O  2.90617e+01  1.79043e+01  3.57590e+01
       C  1.13286e+01  3.67726e+01  3.91339e+01
       O  1.11797e+01  3.56819e+01  3.95094e+01
       O  1.14864e+01  3.78647e+01  3.87659e+01
       C  3.97626e+01  1.87218e+01  2.95786e+01
       O  4.08826e+01  1.84106e+01  2.96010e+01
       O  3.86467e+01  1.90495e+01  2.95590e+01
       C  2.93856e+01  2.00901e+00  3.11065e+01
       O  3.02040e+01  2.27449e+00  3.03241e+01
       O  2.85774e+01  1.69715e+00  3.18807e+01
       C  3.81831e+01  3.95947e+01  2.59089e+01
       O  3.72673e+01  3.93298e+01  2.52425e+01
       O  3.90944e+01  3.98655e+01  2.65784e+01
       C  4.26181e+01  2.06214e+01  3.67078e+01
       O  4.20017e+01  2.15158e+01  3.71224e+01
       O  4.32338e+01  1.97318e+01  3.62825e+01
       C  4.15042e+01  2.80708e+01  1.67948e+01
       O  4.25317e+01  2.85283e+01  1.70901e+01
       O  4.04777e+01  2.76177e+01  1.64890e+01
       C  1.70565e+01  1.76506e+01  2.75689e+01
       O  1.68451e+01  1.87269e+01  2.79533e+01
       O  1.72672e+01  1.65681e+01  2.71996e+01
       C  2.73222e+01  2.55238e+01  3.97129e+01
       O  2.69914e+01  2.52785e+01  3.86256e+01
       O  2.76428e+01  2.57623e+01  4.08055e+01
       C  2.26585e+01  3.34286e+01  3.28667e+01
       O  2.36276e+01  3.35626e+01  3.22384e+01
       O  2.16910e+01  3.33040e+01  3.34995e+01
       C  2.59780e+01  1.00214e+01  2.79717e+01
       O  2.61543e+01  9.00775e+00  2.85134e+01
       O  2.58058e+01  1.10464e+01  2.74503e+01
       C  9.98590e+00  6.41781e+00  5.62645e+00
       O  8.93577e+00  6.79611e+00  5.30076e+00
       O  1.10369e+01  6.04877e+00  5.96299e+00
       C  3.21253e+01  1.82898e+01  2.23036e+00
       O  3.22882e+01  1.89616e+01  3.16532e+00
       O  3.19619e+01  1.76251e+01  1.29065e+00
       C  3.38941e+01  1.94778e+01  1.60156e+01
       O  3.34741e+01  1.88526e+01  1.51305e+01
       O  3.43224e+01  2.01186e+01  1.68867e+01
       C  2.37516e+01  3.10687e+01  1.64963e+01
       O  2.43341e+01  3.01396e+01  1.68833e+01
       O  2.31738e+01  3.19938e+01  1.60941e+01
       C  1.89387e+01  3.26350e+01  4.53535e+01
       O  1.78255e+01  3.28076e+01  4.56402e+01
       O  2.00539e+01  3.24607e+01  4.50711e+01
       C  6.36288e+00  2.95570e+01  3.89981e+01
       O  5.20786e+00  2.96103e+01  3.88861e+01
       O  7.51950e+00  2.94879e+01  3.90957e+01
       C  3.64417e+01  3.71996e+01  3.63067e+01
       O  3.67005e+01  3.62304e+01  3.68958e+01
       O  3.61862e+01  3.81671e+01  3.57142e+01
       C  1.22427e+01  4.22037e+01  2.48899e+01
       O  1.31002e+01  4.14284e+01  2.47634e+01
       O  1.13839e+01  4.29759e+01  2.50185e+01
       C  1.17487e+01  4.00125e+01  4.10861e+01
       O  1.07238e+01  3.96715e+01  4.15146e+01
       O  1.27825e+01  4.03423e+01  4.06655e+01
       C  4.32133e+00  4.41772e+01  3.72595e+01
       O  4.79116e+00  4.39920e+01  3.83067e+01
       O  3.85298e+00  4.43562e+01  3.62107e+01
       C  8.45736e+00  3.82392e+01  3.75961e+01
       O  8.52769e+00  3.76683e+01  3.86068e+01
       O  8.37957e+00  3.88004e+01  3.65809e+01
       C  1.92859e+01  1.27252e+01  1.57571e+01
       O  1.94637e+01  1.23121e+01  1.68292e+01
       O  1.91035e+01  1.31491e+01  1.46892e+01
       C  3.03781e+01  4.74277e+01  3.83614e+01
       O  2.92948e+01  4.75863e+01  3.87556e+01
       O  3.14563e+01  4.72579e+01  3.79611e+01
       C  1.03261e+01  1.61425e+01  4.64191e+01
       O  1.08440e+01  1.71833e+01  4.64047e+01
       O  9.79989e+00  1.51062e+01  4.64450e+01
       C  5.05878e+00  6.53336e+00  2.95094e+01
       O  6.00705e+00  7.00825e+00  2.90328e+01
       O  4.11050e+00  6.04487e+00  2.99737e+01
       C  2.35877e+01  2.21832e+01  3.04638e+01
       O  2.45279e+01  2.20646e+01  2.97888e+01
       O  2.26512e+01  2.23072e+01  3.11411e+01
       C  7.41752e+00  3.61097e+01  4.49275e+01
       O  7.50958e+00  3.66448e+01  4.59556e+01
       O  7.33244e+00  3.55529e+01  4.39099e+01
       C  3.26547e+01  2.50713e+01  8.85100e+00
       O  3.18164e+01  2.58323e+01  8.58599e+00
       O  3.34966e+01  2.43190e+01  9.12735e+00
       C  3.80954e+01  1.13419e+01  4.38734e+01
       O  3.73470e+01  1.09414e+01  4.46676e+01
       O  3.88464e+01  1.17492e+01  4.30849e+01
       C  1.59849e+01  3.73199e+01  4.39423e+01
       O  1.57680e+01  3.82046e+01  4.46639e+01
       O  1.62001e+01  3.64463e+01  4.32056e+01
       C  1.32265e+01  4.36357e+01  3.38330e+01
       O  1.22440e+01  4.30208e+01  3.39335e+01
       O  1.42116e+01  4.42427e+01  3.37227e+01
       C  8.53172e+00  3.60385e+00  2.98495e+00
       O  9.35024e+00  4.21196e+00  3.54471e+00
       O  7.71464e+00  2.99687e+00  2.42159e+00
       C  1.29779e+01  2.45220e+01  5.17409e-01
       O  1.20683e+01  2.41769e+01 -1.18754e-01
       O  1.38926e+01  2.48753e+01  1.14197e+00
       C  1.04504e+01  4.18929e+01  3.79060e+01
       O  1.04744e+01  4.07892e+01  3.82694e+01
       O  1.04382e+01  4.29960e+01  3.75362e+01
       C  3.74386e+01  3.52588e+01  1.61677e+01
       O  3.79956e+01  3.51754e+01  1.51503e+01
       O  3.68651e+01  3.53571e+01  1.71747e+01
       C  4.51593e+01  1.25688e+01  1.26972e+01
       O  4.42671e+01  1.32960e+01  1.28642e+01
       O  4.60642e+01  1.18587e+01  1.25293e+01
       C  1.59354e+01  1.43006e+01  2.97417e+01
       O  1.49356e+01  1.37224e+01  2.96067e+01
       O  1.69329e+01  1.48760e+01  2.98964e+01
       C  2.76530e+01  9.07663e+00  1.40126e+01
       O  2.82996e+01  9.02173e+00  1.49775e+01
       O  2.70117e+01  9.11574e+00  1.30429e+01
       C  4.33346e+01  1.42208e+01  3.85522e+01
       O  4.43532e+01  1.47726e+01  3.84520e+01
       O  4.23178e+01  1.36645e+01  3.86518e+01
       C  3.29571e+00  2.18090e+01  2.21117e+01
       O  2.79408e+00  2.22272e+01  2.30738e+01
       O  3.79882e+00  2.13930e+01  2.11501e+01
       C  2.26936e+01  2.34731e+01  2.64439e+01
       O  2.27363e+01  2.32462e+01  2.75836e+01
       O  2.26646e+01  2.37046e+01  2.53046e+01
       C  1.96326e+01  3.73678e+01  1.48046e+01
       O  1.94290e+01  3.76970e+01  1.37078e+01
       O  1.98265e+01  3.70283e+01  1.58991e+01
       C  4.44478e+01  4.67565e+01  2.50808e+01
       O  4.41158e+01  4.59961e+01  2.58955e+01
       O  4.47850e+01  4.75161e+01  2.42682e+01
       C  3.30195e+01  1.49604e+01  7.35873e+00
       O  3.38005e+01  1.55301e+01  8.00562e+00
       O  3.22429e+01  1.43912e+01  6.70752e+00
       C  1.78772e+01  2.30087e+01  1.92520e+01
       O  1.85101e+01  2.26410e+01  2.01539e+01
       O  1.72203e+01  2.33733e+01  1.83651e+01
       C  2.15194e+01  1.49382e+01  2.64233e+00
       O  2.03659e+01  1.50674e+01  2.57302e+00
       O  2.26733e+01  1.48140e+01  2.71750e+00
       C  3.25247e+00  3.45775e+01  4.78665e+01
       O  4.09876e+00  3.37934e+01  4.80097e+01
       O  2.40362e+00  3.53598e+01  4.77255e+01
       C  7.81255e+00  4.73892e+01  1.45482e+01
       O  8.95799e+00  4.73201e+01  1.43546e+01
       O  6.67382e+00  4.74615e+01  1.47653e+01
       C  3.26492e+01  4.05471e+01  4.06652e+01
       O  3.15403e+01  4.08767e+01  4.07832e+01
       O  3.37575e+01  4.02169e+01  4.05433e+01
       C  7.57084e+00  3.24571e+01  4.44208e+01
       O  8.69391e+00  3.27116e+01  4.42564e+01
       O  6.44976e+00  3.21968e+01  4.45855e+01
       C  1.20338e+01  3.11878e+01  4.89481e+01
       O  1.09223e+01  3.14901e+01  4.91091e+01
       O  1.31470e+01  3.08925e+01  4.87879e+01
       C  1.77286e+01  4.33480e+01  1.33767e+00
       O  1.68842e+01  4.37904e+01  6.71890e-01
       O  1.85803e+01  4.29132e+01  1.99984e+00
       C  1.08748e+01  1.03152e+01  4.14849e+01
       O  1.00965e+01  1.05159e+01  4.23248e+01
       O  1.16626e+01  1.01256e+01  4.06508e+01
       C  2.31804e+01  3.29921e+01  2.93222e-01
       O  2.20211e+01  3.29958e+01  3.80252e-01
       O  2.43411e+01  3.29830e+01  2.15017e-01
       C  1.52270e+00  3.52407e+01  7.29401e+00
       O  8.61187e-01  3.58306e+01  6.54106e+00
       O  2.19741e+00  3.46606e+01  8.04270e+00
       C  1.87075e+01  3.24932e+01  1.20833e+01
       O  1.93435e+01  3.22702e+01  1.11353e+01
       O  1.80998e+01  3.27273e+01  1.30464e+01
       C  1.66796e+01  2.73138e+01  2.29994e+01
       O  1.75518e+01  2.78652e+01  2.24627e+01
       O  1.58056e+01  2.67746e+01  2.35446e+01
       C  3.37985e+01  2.91296e+01  4.25726e+01
       O  3.27058e+01  2.94377e+01  4.28258e+01
       O  3.48890e+01  2.88254e+01  4.23068e+01
       C  1.77428e+01  2.90404e+01  1.61056e+01
       O  1.87194e+01  2.88888e+01  1.67190e+01
       O  1.67675e+01  2.91818e+01  1.54890e+01
       C  2.20055e+01  2.71793e+01  1.64327e+01
       O  2.21704e+01  2.60594e+01  1.61686e+01
       O  2.18443e+01  2.83010e+01  1.66913e+01
       C  8.97824e+00  2.55791e+01  1.82214e+00
       O  1.01295e+01  2.56926e+01  1.70609e+00
       O  7.82660e+00  2.54467e+01  1.91543e+00
       C  3.88369e+01  4.41092e+01  2.82944e+01
       O  3.92148e+01  4.37087e+01  2.93184e+01
       O  3.84645e+01  4.45042e+01  2.72662e+01
       C  1.03168e+01  2.37797e+01  5.49001e+00
       O  1.05493e+01  2.34569e+01  6.58230e+00
       O  1.00906e+01  2.40979e+01  4.39435e+00
       C  1.54224e+01  4.11533e+01  4.41170e+01
       O  1.43028e+01  4.08395e+01  4.41605e+01
       O  1.65420e+01  4.14619e+01  4.40603e+01
       C  1.72240e+01  2.26043e+01  1.51949e+01
       O  1.79219e+01  2.34980e+01  1.54589e+01
       O  1.65409e+01  2.17041e+01  1.49253e+01
       C  4.36433e+01  2.65491e+01  3.01809e+01
       O  4.44193e+01  2.58560e+01  2.96635e+01
       O  4.28639e+01  2.72423e+01  3.06949e+01
       C  1.90552e+01  4.12840e+01  1.54385e+01
       O  1.88648e+01  4.23902e+01  1.51362e+01
       O  1.92504e+01  4.01787e+01  1.57404e+01
       C  3.74761e+01  2.81092e+01  1.58911e+01
       O  3.77577e+01  2.91337e+01  1.54183e+01
       O  3.71945e+01  2.70814e+01  1.63568e+01
       C  3.16500e+00  1.66903e+01  1.75678e+01
       O  2.98614e+00  1.57349e+01  1.82062e+01
       O  3.32051e+00  1.76428e+01  1.69199e+01
       C  4.24993e+01  4.15650e+01  5.11874e+00
       O  4.26320e+01  4.06329e+01  5.80169e+00
       O  4.23766e+01  4.24947e+01  4.43177e+00
       C  4.80899e+01  2.04813e+00  1.04857e+01
       O  4.73349e+01  1.82503e+00  9.63006e+00
       O  4.88467e+01  2.26085e+00  1.13430e+01
       C  4.51079e+01  1.12807e-01  4.73104e+01
       O  4.56628e+01 -8.91883e-01  4.71216e+01
       O  4.45627e+01  1.12039e+00  4.75077e+01
       C  2.31727e+01  3.84956e+01  2.76929e+01
       O  2.28895e+01  3.94795e+01  2.82453e+01
       O  2.34577e+01  3.75038e+01  2.71579e+01
       C  2.50301e+00  4.22444e+01  4.36187e+01
       O  2.63907e+00  4.22007e+01  4.47723e+01
       O  2.36295e+00  4.22911e+01  4.24653e+01
       C  3.63834e+01  3.49688e+01  8.60912e-01
       O  3.57108e+01  3.40865e+01  5.10985e-01
       O  3.70554e+01  3.58491e+01  1.21464e+00
       C  4.22899e+01  4.41244e+01  3.84213e+01
       O  4.12313e+01  4.40534e+01  3.79457e+01
       O  4.33492e+01  4.41928e+01  3.88981e+01
       C  3.37777e+01  2.04866e+01  2.04933e+01
       O  3.42360e+01  2.13810e+01  2.10777e+01
       O  3.33209e+01  1.95862e+01  1.99161e+01
       C  3.23299e+01  1.20615e+01  2.95436e+01
       O  3.17775e+01  1.12373e+01  2.89364e+01
       O  3.28767e+01  1.28879e+01  3.01510e+01