LAMMPS Description

3600  atoms
 2400  bonds
 1200  angles

 2  atom types
 1  bond types
 1  angle types


0.0 81.304 xlo xhi
0.0 81.304 ylo yhi
0.0 81.304 zlo zhi

Masses

  1 12.0107
  2 15.9994

Bond Coeffs

 1    2.196    0.45106005 -0.67297933 0.5857145

Angle Coeffs

  1    0.0861  180.000000

Atoms

1 1 1 0.651200 5.147748 57.253539 23.853327
2 1 2 -0.325600 7.316622 57.426627 23.556958
3 1 2 -0.325600 2.978873 57.080451 24.149697
4 2 1 0.651200 11.290020 12.900846 69.675786
5 2 2 -0.325600 9.616359 13.947620 70.637520
6 2 2 -0.325600 12.963682 11.854072 68.714053
7 3 1 0.651200 29.532337 67.376544 19.528788
8 3 2 -0.325600 27.506798 66.654593 19.084053
9 3 2 -0.325600 31.557876 68.098495 19.973523
10 4 1 0.651200 46.244136 59.191350 45.453929
11 4 2 -0.325600 48.093074 58.706577 46.534777
12 4 2 -0.325600 44.395199 59.676123 44.373080
13 5 1 0.651200 42.067613 79.328398 20.128191
14 5 2 -0.325600 41.202237 77.352493 19.717421
15 5 2 -0.325600 42.932989 81.304304 20.538961
16 6 1 0.651200 15.730112 44.559967 35.727000
17 6 2 -0.325600 14.034653 45.282419 34.533144
18 6 2 -0.325600 17.425571 43.837515 36.920855
19 7 1 0.651200 13.063277 70.958343 74.452777
20 7 2 -0.325600 13.569480 68.856656 74.838108
21 7 2 -0.325600 12.557074 73.060030 74.067446
22 8 1 0.651200 24.442217 24.440116 65.105476
23 8 2 -0.325600 23.393822 23.173815 66.561209
24 8 2 -0.325600 25.490613 25.706417 63.649743
25 9 1 0.651200 74.935552 78.335674 15.036232
26 9 2 -0.325600 75.769400 79.988818 16.216751
27 9 2 -0.325600 74.101705 76.682530 13.855714
28 10 1 0.651200 27.219269 59.024713 23.400885
29 10 2 -0.325600 28.309469 60.358439 22.039104
30 10 2 -0.325600 26.129068 57.690988 24.762667
31 11 1 0.651200 64.260953 13.243621 68.285718
32 11 2 -0.325600 63.286245 14.849210 69.423187
33 11 2 -0.325600 65.235662 11.638031 67.148249
34 12 1 0.651200 31.197140 60.337039 81.305192
35 12 2 -0.325600 32.845213 61.788130 81.305855
36 12 2 -0.325600 29.549067 58.885948 81.304530
37 13 1 0.651200 55.437370 9.644327 43.403099
38 13 2 -0.325600 57.136331 11.024747 43.230522
39 13 2 -0.325600 53.738410 8.263906 43.575676
40 14 1 0.651200 55.655534 59.034009 13.637149
41 14 2 -0.325600 53.481947 59.259928 13.421998
42 14 2 -0.325600 57.829121 58.808090 13.852300
43 15 1 0.651200 63.714931 65.044978 65.268151
44 15 2 -0.325600 65.670754 66.019285 65.050686
45 15 2 -0.325600 61.759107 64.070671 65.485615
46 16 1 0.651200 32.881546 6.727428 25.203883
47 16 2 -0.325600 31.849549 8.224865 23.973242
48 16 2 -0.325600 33.913542 5.229992 26.434525
49 17 1 0.651200 55.319894 12.221140 75.420051
50 17 2 -0.325600 57.027912 10.986045 76.035702
51 17 2 -0.325600 53.611876 13.456234 74.804400
52 18 1 0.651200 67.870244 62.954977 57.343049
53 18 2 -0.325600 66.711409 61.123562 57.696357
54 18 2 -0.325600 69.029080 64.786393 56.989741
55 19 1 0.651200 70.626447 57.333368 69.777311
56 19 2 -0.325600 68.736251 57.958938 68.851226
57 19 2 -0.325600 72.516642 56.707799 70.703397
58 20 1 0.651200 22.616395 79.072952 2.763554
59 20 2 -0.325600 22.422420 77.157842 1.706891
60 20 2 -0.325600 22.810370 80.988063 3.820217
61 21 1 0.651200 13.803241 70.417851 80.674577
62 21 2 -0.325600 13.904062 68.254052 80.314551
63 21 2 -0.325600 13.702420 72.581650 81.034604
64 22 1 0.651200 11.534359 49.727237 15.420380
65 22 2 -0.325600 11.900682 47.755089 14.526934
66 22 2 -0.325600 11.168035 51.699386 16.313827
67 23 1 0.651200 72.711168 1.899907 36.442717
68 23 2 -0.325600 73.556026 0.684842 38.064950
69 23 2 -0.325600 71.866310 3.114972 34.820483
70 24 1 0.651200 54.028582 1.160692 61.437127
71 24 2 -0.325600 54.409669 2.321420 63.261762
72 24 2 -0.325600 53.647495 -0.000037 59.612492
73 25 1 0.651200 21.352068 30.839964 16.457139
74 25 2 -0.325600 22.905214 29.294032 16.597281
75 25 2 -0.325600 19.798922 32.385896 16.316997
76 26 1 0.651200 17.706041 47.767868 9.469763
77 26 2 -0.325600 18.915846 49.594527 9.323130
78 26 2 -0.325600 16.496236 45.941210 9.616397
79 27 1 0.651200 49.162060 72.310462 32.286185
80 27 2 -0.325600 48.442245 73.175518 30.400620
81 27 2 -0.325600 49.881875 71.445407 34.171750
82 28 1 0.651200 46.803051 13.576882 14.794581
83 28 2 -0.325600 45.818433 15.474405 15.296322
84 28 2 -0.325600 47.787668 11.679359 14.292840
85 29 1 0.651200 61.353780 57.004995 66.567030
86 29 2 -0.325600 60.503200 55.172325 65.707003
87 29 2 -0.325600 62.204359 58.837664 67.427056
88 30 1 0.651200 29.065481 49.732069 19.016104
89 30 2 -0.325600 28.788878 49.274652 16.886298
90 30 2 -0.325600 29.342085 50.189486 21.145909
91 31 1 0.651200 69.390238 10.029744 43.612124
92 31 2 -0.325600 69.091313 11.206363 45.441884
93 31 2 -0.325600 69.689164 8.853125 41.782364
94 32 1 0.651200 10.072200 37.068012 19.141100
95 32 2 -0.325600 11.071479 38.247950 20.700265
96 32 2 -0.325600 9.072921 35.888074 17.581934
97 33 1 0.651200 31.627033 40.404243 77.960279
98 33 2 -0.325600 32.487034 39.567038 76.121449
99 33 2 -0.325600 30.767031 41.241448 79.799108
100 34 1 0.651200 3.307980 70.335635 41.221241
101 34 2 -0.325600 1.433345 69.192167 41.226998
102 34 2 -0.325600 5.182616 71.479103 41.215484
103 35 1 0.651200 44.753272 31.292585 33.495068
104 35 2 -0.325600 46.370596 32.759793 33.264033
105 35 2 -0.325600 43.135949 29.825378 33.726102
106 36 1 0.651200 8.598618 12.266859 78.260017
107 36 2 -0.325600 7.599075 13.738217 79.547583
108 36 2 -0.325600 9.598162 10.795500 76.972451
109 37 1 0.651200 51.833003 74.611956 2.293656
110 37 2 -0.325600 50.795735 74.978843 4.193993
111 37 2 -0.325600 52.870271 74.245069 0.393320
112 38 1 0.651200 38.453130 76.354025 29.012017
113 38 2 -0.325600 36.739963 77.701087 29.280889
114 38 2 -0.325600 40.166296 75.006962 28.743146
115 39 1 0.651200 8.102771 50.680947 78.810901
116 39 2 -0.325600 9.955751 50.111429 77.779434
117 39 2 -0.325600 6.249791 51.250465 79.842368
118 40 1 0.651200 11.818859 23.272925 16.487500
119 40 2 -0.325600 13.401848 22.083814 17.437221
120 40 2 -0.325600 10.235870 24.462036 15.537779
121 41 1 0.651200 63.186527 62.252102 16.775202
122 41 2 -0.325600 65.216664 61.473178 17.081192
123 41 2 -0.325600 61.156390 63.031027 16.469211
124 42 1 0.651200 38.225822 70.650670 2.048351
125 42 2 -0.325600 38.824231 70.133867 -0.000218
126 42 2 -0.325600 37.627414 71.167472 4.096919
127 43 1 0.651200 13.620088 20.374177 23.769218
128 43 2 -0.325600 11.855706 19.709637 22.643540
129 43 2 -0.325600 15.384470 21.038718 24.894896
130 44 1 0.651200 29.424416 63.234303 76.622335
131 44 2 -0.325600 29.232393 64.641626 78.296963
132 44 2 -0.325600 29.616439 61.826981 74.947707
133 45 1 0.651200 41.527916 12.520626 71.026534
134 45 2 -0.325600 40.187638 12.638108 72.761949
135 45 2 -0.325600 42.868193 12.403145 69.291120
136 46 1 0.651200 32.197037 65.922068 38.998881
137 46 2 -0.325600 33.512712 64.344760 39.775354
138 46 2 -0.325600 30.881363 67.499376 38.222407
139 47 1 0.651200 76.735014 35.179812 26.549102
140 47 2 -0.325600 78.368912 33.866102 25.896144
141 47 2 -0.325600 75.101115 36.493521 27.202059
142 48 1 0.651200 70.099586 32.645823 44.871335
143 48 2 -0.325600 71.208707 32.102578 43.055696
144 48 2 -0.325600 68.990466 33.189069 46.686975
145 49 1 0.651200 78.726302 25.029602 15.385976
146 49 2 -0.325600 80.095505 23.927311 14.069904
147 49 2 -0.325600 77.357098 26.131893 16.702049
148 50 1 0.651200 46.270131 46.962496 42.776923
149 50 2 -0.325600 46.984407 47.089748 40.704382
150 50 2 -0.325600 45.555854 46.835245 44.849464
151 51 1 0.651200 58.556500 38.110456 79.596617
152 51 2 -0.325600 58.702204 39.810286 78.214169
153 51 2 -0.325600 58.410797 36.410627 80.979064
154 52 1 0.651200 59.424217 15.523812 58.466551
155 52 2 -0.325600 61.010468 15.165223 56.991074
156 52 2 -0.325600 57.837966 15.882401 59.942028
157 53 1 0.651200 13.462004 2.125484 28.683430
158 53 2 -0.325600 13.002101 4.232267 29.097873
159 53 2 -0.325600 13.921907 0.018700 28.268988
160 54 1 0.651200 8.338099 61.621081 15.617524
161 54 2 -0.325600 6.623053 60.377331 15.040017
162 54 2 -0.325600 10.053145 62.864832 16.195030
163 55 1 0.651200 45.495725 48.076948 66.007350
164 55 2 -0.325600 43.970330 46.657850 65.313705
165 55 2 -0.325600 47.021119 49.496046 66.700995
166 56 1 0.651200 53.085001 3.630046 40.684550
167 56 2 -0.325600 53.278830 5.078189 39.045306
168 56 2 -0.325600 52.891173 2.181902 42.323794
169 57 1 0.651200 32.883610 77.455343 11.511655
170 57 2 -0.325600 31.489312 77.941488 9.886414
171 57 2 -0.325600 34.277907 76.969198 13.136896
172 58 1 0.651200 64.150123 38.607414 10.918633
173 58 2 -0.325600 63.474655 40.012324 9.372094
174 58 2 -0.325600 64.825591 37.202505 12.465172
175 59 1 0.651200 65.824544 24.747075 59.133650
176 59 2 -0.325600 66.613270 25.624981 57.281893
177 59 2 -0.325600 65.035819 23.869169 60.985407
178 60 1 0.651200 26.093182 64.154078 5.353029
179 60 2 -0.325600 27.495556 65.435549 4.251671
180 60 2 -0.325600 24.690808 62.872606 6.454386
181 61 1 0.651200 27.158002 53.325867 27.946558
182 61 2 -0.325600 28.020909 54.614237 29.501326
183 61 2 -0.325600 26.295095 52.037496 26.391790
184 62 1 0.651200 67.950298 37.477894 26.178674
185 62 2 -0.325600 66.458372 38.708263 27.218942
186 62 2 -0.325600 69.442224 36.247525 25.138405
187 63 1 0.651200 30.653699 36.163541 1.639330
188 63 2 -0.325600 30.969888 37.589875 3.278660
189 63 2 -0.325600 30.337510 34.737207 -0.000001
190 64 1 0.651200 8.708077 6.502271 65.978494
191 64 2 -0.325600 9.006186 6.546926 68.153568
192 64 2 -0.325600 8.409967 6.457615 63.803420
193 65 1 0.651200 5.853423 25.237024 4.856319
194 65 2 -0.325600 5.016733 26.051172 6.716136
195 65 2 -0.325600 6.690114 24.422875 2.996501
196 66 1 0.651200 27.623186 29.879776 78.988833
197 66 2 -0.325600 27.219918 31.222989 77.299169
198 66 2 -0.325600 28.026454 28.536563 80.678496
199 67 1 0.651200 33.789742 10.341279 13.484234
200 67 2 -0.325600 32.071318 10.983968 12.277678
201 67 2 -0.325600 35.508167 9.698589 14.690790
202 68 1 0.651200 19.193546 0.117752 30.723718
203 68 2 -0.325600 17.666539 0.000000 32.297311
204 68 2 -0.325600 20.720553 0.235504 29.150126
205 69 1 0.651200 14.604277 17.535949 60.382603
206 69 2 -0.325600 16.399879 17.321258 61.628208
207 69 2 -0.325600 12.808675 17.750639 59.136999
208 70 1 0.651200 23.843848 51.508530 10.853274
209 70 2 -0.325600 23.858164 52.287062 8.800108
210 70 2 -0.325600 23.829532 50.729998 12.906441
211 71 1 0.651200 67.042227 38.760115 42.568817
212 71 2 -0.325600 68.805703 38.013638 43.643404
213 71 2 -0.325600 65.278752 39.506592 41.494231
214 72 1 0.651200 29.313351 9.874461 29.264045
215 72 2 -0.325600 31.491541 10.149376 29.305523
216 72 2 -0.325600 27.135161 9.599547 29.222567
217 73 1 0.651200 7.143005 67.230277 34.926619
218 73 2 -0.325600 5.186729 68.197263 34.682215
219 73 2 -0.325600 9.099281 66.263290 35.171023
220 74 1 0.651200 63.248372 78.883228 51.016411
221 74 2 -0.325600 65.155679 78.842534 52.103761
222 74 2 -0.325600 61.341064 78.923922 49.929060
223 75 1 0.651200 35.762830 49.706937 17.713388
224 75 2 -0.325600 37.218119 51.219140 17.067488
225 75 2 -0.325600 34.307540 48.194735 18.359288
226 76 1 0.651200 21.747697 60.583218 74.421179
227 76 2 -0.325600 19.937685 60.003241 75.520857
228 76 2 -0.325600 23.557710 61.163196 73.321502
229 77 1 0.651200 22.411988 49.016461 19.134405
230 77 2 -0.325600 22.352291 47.790060 17.313914
231 77 2 -0.325600 22.471686 50.242862 20.954895
232 78 1 0.651200 43.358915 22.378024 46.344786
233 78 2 -0.325600 43.228465 22.603636 44.164444
234 78 2 -0.325600 43.489364 22.152411 48.525128
235 79 1 0.651200 36.874907 43.067964 20.400710
236 79 2 -0.325600 38.117835 44.583774 21.390287
237 79 2 -0.325600 35.631980 41.552155 19.411134
238 80 1 0.651200 14.997422 57.848371 31.375074
239 80 2 -0.325600 16.534633 58.443777 29.924459
240 80 2 -0.325600 13.460211 57.252964 32.825688
241 81 1 0.651200 47.202870 57.544961 33.925737
242 81 2 -0.325600 46.489097 57.592655 31.849668
243 81 2 -0.325600 47.916642 57.497266 36.001807
244 82 1 0.651200 28.253375 61.575396 10.881771
245 82 2 -0.325600 29.526097 61.696848 9.096488
246 82 2 -0.325600 26.980652 61.453943 12.667054
247 83 1 0.651200 15.408398 31.493848 38.039637
248 83 2 -0.325600 16.319589 30.879444 39.940702
249 83 2 -0.325600 14.497208 32.108253 36.138572
250 84 1 0.651200 24.592971 26.265372 0.920579
251 84 2 -0.325600 25.487973 24.269578 1.114458
252 84 2 -0.325600 23.697968 28.261165 0.726700
253 85 1 0.651200 48.448395 11.533147 56.148364
254 85 2 -0.325600 49.092016 13.576938 56.628449
255 85 2 -0.325600 47.804774 9.489357 55.668278
256 86 1 0.651200 4.405841 11.234211 67.823403
257 86 2 -0.325600 3.971203 9.858789 69.479034
258 86 2 -0.325600 4.840478 12.609632 66.167771
259 87 1 0.651200 57.603942 30.344658 52.652383
260 87 2 -0.325600 57.402490 31.504229 54.506196
261 87 2 -0.325600 57.805394 29.185087 50.798570
262 88 1 0.651200 15.244903 23.492684 47.574348
263 88 2 -0.325600 14.586116 25.586577 47.632849
264 88 2 -0.325600 15.903689 21.398791 47.515848
265 89 1 0.651200 37.180591 55.404045 46.273925
266 89 2 -0.325600 35.890106 53.682505 45.834887
267 89 2 -0.325600 38.471077 57.125586 46.712963
268 90 1 0.651200 68.774739 73.055222 53.639869
269 90 2 -0.325600 67.963054 72.414194 55.576893
270 90 2 -0.325600 69.586425 73.696249 51.702845
271 91 1 0.651200 59.620148 12.174550 64.303381
272 91 2 -0.325600 58.989848 12.811372 66.308123
273 91 2 -0.325600 60.250449 11.537728 62.298639
274 92 1 0.651200 52.182678 67.620576 49.266359
275 92 2 -0.325600 51.764417 65.483074 48.987159
276 92 2 -0.325600 52.600940 69.758078 49.545558
277 93 1 0.651200 35.170748 71.553540 53.343732
278 93 2 -0.325600 34.111227 69.640992 53.140305
279 93 2 -0.325600 36.230269 73.466089 53.547158
280 94 1 0.651200 68.804513 40.940523 32.831894
281 94 2 -0.325600 67.167076 39.487585 32.659895
282 94 2 -0.325600 70.441949 42.393460 33.003893
283 95 1 0.651200 64.140923 40.266701 16.986661
284 95 2 -0.325600 62.070112 40.026734 16.296758
285 95 2 -0.325600 66.211735 40.506668 17.676564
286 96 1 0.651200 17.012206 65.632605 72.009288
287 96 2 -0.325600 16.988818 64.319302 73.768974
288 96 2 -0.325600 17.035594 66.945909 70.249601
289 97 1 0.651200 80.564278 74.494423 17.840326
290 97 2 -0.325600 80.768433 74.985243 19.970872
291 97 2 -0.325600 80.360122 74.003602 15.709780
292 98 1 0.651200 46.449847 9.093133 21.191180
293 98 2 -0.325600 46.831358 8.892483 19.038043
294 98 2 -0.325600 46.068336 9.293782 23.344317
295 99 1 0.651200 27.273389 14.899068 40.076870
296 99 2 -0.325600 26.759442 12.828652 40.597490
297 99 2 -0.325600 27.787337 16.969485 39.556251
298 100 1 0.651200 77.173540 15.390196 44.835447
299 100 2 -0.325600 75.200759 14.425859 44.835062
300 100 2 -0.325600 79.146321 16.354533 44.835832
301 101 1 0.651200 22.767552 36.031517 -0.000177
302 101 2 -0.325600 20.652121 36.620380 -0.000070
303 101 2 -0.325600 24.882983 35.442654 -0.000284
304 102 1 0.651200 37.973894 18.083921 59.000483
305 102 2 -0.325600 40.002388 18.897887 58.789572
306 102 2 -0.325600 35.945400 17.269955 59.211393
307 103 1 0.651200 49.599147 40.125377 71.693038
308 103 2 -0.325600 50.205114 41.559595 73.241467
309 103 2 -0.325600 48.993179 38.691159 70.144609
310 104 1 0.651200 39.126888 5.657183 69.371391
311 104 2 -0.325600 40.711025 7.090684 69.878730
312 104 2 -0.325600 37.542751 4.223681 68.864052
313 105 1 0.651200 40.722372 -0.000479 64.181591
314 105 2 -0.325600 42.260957 -0.000688 62.614886
315 105 2 -0.325600 39.183787 -0.000270 65.748297
316 106 1 0.651200 44.904881 8.252911 50.790645
317 106 2 -0.325600 43.119413 7.079905 51.298553
318 106 2 -0.325600 46.690350 9.425916 50.282738
319 107 1 0.651200 28.019757 80.973983 28.052532
320 107 2 -0.325600 27.642422 80.644677 25.914545
321 107 2 -0.325600 28.397093 81.303289 30.190518
322 108 1 0.651200 23.508458 47.898409 2.419863
323 108 2 -0.325600 22.948906 46.279228 3.793531
324 108 2 -0.325600 24.068009 49.517591 1.046195
325 109 1 0.651200 4.686328 29.629516 17.876871
326 109 2 -0.325600 6.452743 30.152967 19.071689
327 109 2 -0.325600 2.919913 29.106066 16.682054
328 110 1 0.651200 49.360903 27.902437 27.573468
329 110 2 -0.325600 51.191028 28.943790 28.196396
330 110 2 -0.325600 47.530779 26.861085 26.950540
331 111 1 0.651200 66.910022 81.304009 44.232971
332 111 2 -0.325600 67.563527 81.304007 42.136607
333 111 2 -0.325600 66.256518 81.304012 46.329335
334 112 1 0.651200 20.918456 58.325130 2.347524
335 112 2 -0.325600 21.468344 58.036076 4.453677
336 112 2 -0.325600 20.368568 58.614183 0.241370
337 113 1 0.651200 58.789690 37.695931 27.920496
338 113 2 -0.325600 59.817882 37.327630 26.015506
339 113 2 -0.325600 57.761497 38.064232 29.825485
340 114 1 0.651200 74.402776 45.927176 38.021487
341 114 2 -0.325600 76.125047 45.389016 39.272878
342 114 2 -0.325600 72.680506 46.465336 36.770097
343 115 1 0.651200 1.655281 44.273267 44.666267
344 115 2 -0.325600 2.876124 44.980340 42.983591
345 115 2 -0.325600 0.434438 43.566194 46.348944
346 116 1 0.651200 51.778322 80.673290 39.428108
347 116 2 -0.325600 50.051603 81.304002 40.629130
348 116 2 -0.325600 53.505041 80.042578 38.227086
349 117 1 0.651200 25.343429 67.896938 75.964736
350 117 2 -0.325600 26.643617 69.463760 76.787165
351 117 2 -0.325600 24.043241 66.330116 75.142306
352 118 1 0.651200 79.725970 32.509691 0.435405
353 118 2 -0.325600 79.044758 34.591542 0.589211
354 118 2 -0.325600 80.407182 30.427840 0.281600
355 119 1 0.651200 76.686608 35.585057 17.083979
356 119 2 -0.325600 76.937525 34.418619 18.927419
357 119 2 -0.325600 76.435691 36.751495 15.240538
358 120 1 0.651200 76.413010 66.757680 63.492348
359 120 2 -0.325600 76.594626 65.680968 61.587219
360 120 2 -0.325600 76.231393 67.834393 65.397477
361 121 1 0.651200 2.251831 41.361020 22.472134
362 121 2 -0.325600 1.439440 41.210221 24.506610
363 121 2 -0.325600 3.064222 41.511819 20.437658
364 122 1 0.651200 8.836235 54.467506 62.018764
365 122 2 -0.325600 8.933743 52.458580 62.899965
366 122 2 -0.325600 8.738728 56.476433 61.137563
367 123 1 0.651200 67.238526 69.766194 42.059902
368 123 2 -0.325600 67.176198 67.860971 40.969925
369 123 2 -0.325600 67.300854 71.671417 43.149879
370 124 1 0.651200 75.703118 75.864419 33.430374
371 124 2 -0.325600 74.109348 77.308804 32.988265
372 124 2 -0.325600 77.296887 74.420034 33.872483
373 125 1 0.651200 77.384692 0.317830 11.438295
374 125 2 -0.325600 77.330455 0.000927 13.610493
375 125 2 -0.325600 77.438930 0.634733 9.266098
376 126 1 0.651200 58.331665 52.005251 52.256681
377 126 2 -0.325600 58.076793 49.943670 51.544829
378 126 2 -0.325600 58.586538 54.066832 52.968533
379 127 1 0.651200 46.186096 24.738835 32.607208
380 127 2 -0.325600 44.122490 24.004935 32.449947
381 127 2 -0.325600 48.249702 25.472735 32.764470
382 128 1 0.651200 22.604515 32.249697 73.121126
383 128 2 -0.325600 24.576353 33.189223 72.895395
384 128 2 -0.325600 20.632677 31.310170 73.346856
385 129 1 0.651200 13.592495 49.421084 50.991969
386 129 2 -0.325600 15.549833 49.924813 51.850395
387 129 2 -0.325600 11.635157 48.917354 50.133544
388 130 1 0.651200 62.628328 44.209829 20.596450
389 130 2 -0.325600 61.122040 43.127927 21.772204
390 130 2 -0.325600 64.134615 45.291730 19.420696
391 131 1 0.651200 48.986962 38.500174 29.002450
392 131 2 -0.325600 49.675477 36.447382 28.636657
393 131 2 -0.325600 48.298448 40.552965 29.368243
394 132 1 0.651200 43.646885 72.538707 9.332664
395 132 2 -0.325600 42.651226 74.147689 8.218370
396 132 2 -0.325600 44.642544 70.929724 10.446957
397 133 1 0.651200 34.864967 52.843078 52.674299
398 133 2 -0.325600 36.938659 52.826732 53.396342
399 133 2 -0.325600 32.791275 52.859424 51.952257
400 134 1 0.651200 19.864011 25.020328 34.356666
401 134 2 -0.325600 20.743925 26.794623 35.305052
402 134 2 -0.325600 18.984096 23.246032 33.408279
403 135 1 0.651200 57.429453 48.843922 8.414901
404 135 2 -0.325600 55.771102 47.850314 7.373544
405 135 2 -0.325600 59.087805 49.837530 9.456258
406 136 1 0.651200 11.021812 17.634364 2.595590
407 136 2 -0.325600 12.335111 17.267745 0.874356
408 136 2 -0.325600 9.708513 18.000984 4.316824
409 137 1 0.651200 27.232234 42.582268 74.539160
410 137 2 -0.325600 27.626522 40.571230 73.750441
411 137 2 -0.325600 26.837947 44.593305 75.327878
412 138 1 0.651200 60.506316 68.974462 20.761345
413 138 2 -0.325600 60.874236 69.589275 22.837026
414 138 2 -0.325600 60.138397 68.359650 18.685664
415 139 1 0.651200 51.163705 46.019706 15.854105
416 139 2 -0.325600 53.286344 45.459643 15.803665
417 139 2 -0.325600 49.041066 46.579768 15.904546
418 140 1 0.651200 18.018341 37.535809 14.007503
419 140 2 -0.325600 15.857403 37.145743 14.005506
420 140 2 -0.325600 20.179280 37.925875 14.009499
421 141 1 0.651200 6.206459 31.413001 11.799186
422 141 2 -0.325600 5.929693 29.349918 11.099975
423 141 2 -0.325600 6.483224 33.476085 12.498397
424 142 1 0.651200 20.478665 80.296105 14.675616
425 142 2 -0.325600 19.418464 81.304004 13.037958
426 142 2 -0.325600 21.538867 79.288205 16.313273
427 143 1 0.651200 30.771886 15.272987 74.594632
428 143 2 -0.325600 32.497348 16.627203 74.491240
429 143 2 -0.325600 29.046423 13.918771 74.698024
430 144 1 0.651200 38.754094 70.116730 41.196939
431 144 2 -0.325600 39.977781 71.861480 41.726323
432 144 2 -0.325600 37.530407 68.371980 40.667556
433 145 1 0.651200 58.138894 55.787767 79.204038
434 145 2 -0.325600 58.365233 57.665972 78.089172
435 145 2 -0.325600 57.912556 53.909562 80.318904
436 146 1 0.651200 77.464466 45.691329 19.940059
437 146 2 -0.325600 75.296340 45.809879 19.612975
438 146 2 -0.325600 79.632592 45.572779 20.267144
439 147 1 0.651200 63.793039 1.935412 12.542412
440 147 2 -0.325600 64.751380 3.873446 12.158459
441 147 2 -0.325600 62.834699 -0.002621 12.926366
442 148 1 0.651200 4.653420 33.170439 1.813732
443 148 2 -0.325600 3.098498 34.663711 1.396398
444 148 2 -0.325600 6.208342 31.677167 2.231066
445 149 1 0.651200 74.538912 12.825893 80.383290
446 149 2 -0.325600 73.817030 14.684115 81.304000
447 149 2 -0.325600 75.260795 10.967671 79.462580
448 150 1 0.651200 36.975030 72.487714 71.353724
449 150 2 -0.325600 36.457919 74.199262 70.078966
450 150 2 -0.325600 37.492141 70.776166 72.628483
451 151 1 0.651200 1.698323 24.810132 80.160437
452 151 2 -0.325600 2.769824 23.273806 81.306472
453 151 2 -0.325600 0.626822 26.346458 79.014401
454 152 1 0.651200 60.277007 13.221846 51.264373
455 152 2 -0.325600 59.288284 11.266347 51.122040
456 152 2 -0.325600 61.265729 15.177346 51.406706
457 153 1 0.651200 41.859137 41.296880 29.392181
458 153 2 -0.325600 40.797195 42.577305 27.958793
459 153 2 -0.325600 42.921078 40.016454 30.825569
460 154 1 0.651200 21.634421 5.573722 14.450474
461 154 2 -0.325600 22.996176 7.290890 14.587457
462 154 2 -0.325600 20.272666 3.856553 14.313491
463 155 1 0.651200 50.195898 29.447989 18.718366
464 155 2 -0.325600 52.267342 30.138754 18.486476
465 155 2 -0.325600 48.124454 28.757224 18.950255
466 156 1 0.651200 72.224024 63.917071 51.725735
467 156 2 -0.325600 70.620479 62.429165 51.917019
468 156 2 -0.325600 73.827569 65.404977 51.534451
469 157 1 0.651200 41.939345 79.093324 49.345758
470 157 2 -0.325600 40.243193 78.092844 48.374202
471 157 2 -0.325600 43.635496 80.093804 50.317314
472 158 1 0.651200 2.167737 0.997278 28.154386
473 158 2 -0.325600 4.335532 0.714472 27.948240
474 158 2 -0.325600 -0.000057 1.280085 28.360532
475 159 1 0.651200 71.276003 13.758275 51.239516
476 159 2 -0.325600 70.102628 14.663708 49.619272
477 159 2 -0.325600 72.449377 12.852842 52.859761
478 160 1 0.651200 49.472465 79.387928 31.765423
479 160 2 -0.325600 51.122330 78.569254 30.569795
480 160 2 -0.325600 47.822600 80.206603 32.961052
481 161 1 0.651200 33.771131 44.387127 72.419351
482 161 2 -0.325600 35.186679 45.697544 73.468561
483 161 2 -0.325600 32.355584 43.076709 71.370141
484 162 1 0.651200 38.654224 12.182335 43.345143
485 162 2 -0.325600 39.097772 14.329733 43.227843
486 162 2 -0.325600 38.210677 10.034937 43.462442
487 163 1 0.651200 17.406381 11.666695 33.704758
488 163 2 -0.325600 19.294513 11.892055 34.802929
489 163 2 -0.325600 15.518249 11.441335 32.606587
490 164 1 0.651200 57.769671 59.595281 52.340580
491 164 2 -0.325600 59.919353 59.901334 52.667704
492 164 2 -0.325600 55.619989 59.289228 52.013456
493 165 1 0.651200 35.414291 14.393719 69.386351
494 165 2 -0.325600 33.495601 13.551603 70.043068
495 165 2 -0.325600 37.332981 15.235835 68.729634
496 166 1 0.651200 71.763664 39.145925 78.783805
497 166 2 -0.325600 70.857915 38.168093 77.038733
498 166 2 -0.325600 72.669412 40.123756 80.528877
499 167 1 0.651200 16.482160 74.027352 67.406204
500 167 2 -0.325600 18.583058 74.449531 66.926828
501 167 2 -0.325600 14.381262 73.605173 67.885581
502 168 1 0.651200 13.454289 12.946079 20.675243
503 168 2 -0.325600 13.687611 11.663187 22.442037
504 168 2 -0.325600 13.220967 14.228972 18.908450
505 169 1 0.651200 31.125179 6.924593 63.023004
506 169 2 -0.325600 31.830151 5.691615 64.697695
507 169 2 -0.325600 30.420207 8.157572 61.348314
508 170 1 0.651200 43.430910 80.430325 8.818289
509 170 2 -0.325600 45.382605 81.308656 8.327134
510 170 2 -0.325600 41.479216 79.551993 9.309444
511 171 1 0.651200 9.938124 24.568643 26.145782
512 171 2 -0.325600 8.261894 23.198779 25.777628
513 171 2 -0.325600 11.614354 25.938506 26.513936
514 172 1 0.651200 43.841304 70.007094 46.805856
515 172 2 -0.325600 45.910895 69.870342 46.084811
516 172 2 -0.325600 41.771714 70.143846 47.526900
517 173 1 0.651200 19.045490 64.377356 59.499884
518 173 2 -0.325600 19.192488 66.526514 59.925707
519 173 2 -0.325600 18.898492 62.228199 59.074062
520 174 1 0.651200 14.817843 45.238518 45.817851
521 174 2 -0.325600 15.629933 47.278693 45.819139
522 174 2 -0.325600 14.005753 43.198342 45.816563
523 175 1 0.651200 55.219937 72.686617 31.748111
524 175 2 -0.325600 55.511567 70.728102 30.798910
525 175 2 -0.325600 54.928306 74.645131 32.697312
526 176 1 0.651200 39.260822 30.012022 53.135065
527 176 2 -0.325600 38.521580 28.039549 53.755291
528 176 2 -0.325600 40.000064 31.984496 52.514839
529 177 1 0.651200 19.686669 28.799623 79.923337
530 177 2 -0.325600 21.215535 28.048081 78.537854
531 177 2 -0.325600 18.157802 29.551164 81.308820
532 178 1 0.651200 61.328722 76.980984 42.469555
533 178 2 -0.325600 59.397012 76.078003 42.993890
534 178 2 -0.325600 63.260433 77.883966 41.945220
535 179 1 0.651200 11.174432 48.962609 56.950319
536 179 2 -0.325600 10.106755 50.834139 57.373700
537 179 2 -0.325600 12.242109 47.091079 56.526937
538 180 1 0.651200 71.948302 13.205784 1.460709
539 180 2 -0.325600 72.472826 11.221376 0.680447
540 180 2 -0.325600 71.423778 15.190193 2.240970
541 181 1 0.651200 1.992834 36.273259 7.838342
542 181 2 -0.325600 -0.000002 37.078745 8.287351
543 181 2 -0.325600 3.985669 35.467774 7.389333
544 182 1 0.651200 14.965580 28.074709 77.081115
545 182 2 -0.325600 13.781456 27.257078 78.739771
546 182 2 -0.325600 16.149704 28.892339 75.422459
547 183 1 0.651200 22.412133 46.232950 55.109901
548 183 2 -0.325600 22.586608 44.576894 56.541281
549 183 2 -0.325600 22.237657 47.889005 53.678521
550 184 1 0.651200 47.896926 46.015240 28.865849
551 184 2 -0.325600 48.837711 45.925520 26.883758
552 184 2 -0.325600 46.956142 46.104960 30.847940
553 185 1 0.651200 57.401977 22.639052 57.168970
554 185 2 -0.325600 58.499862 21.072814 58.247560
555 185 2 -0.325600 56.304093 24.205290 56.090379
556 186 1 0.651200 42.382544 50.677446 77.349456
557 186 2 -0.325600 42.956544 52.726989 77.889553
558 186 2 -0.325600 41.808543 48.627902 76.809360
559 187 1 0.651200 14.024175 26.215529 34.728948
560 187 2 -0.325600 14.269297 26.090388 32.550401
561 187 2 -0.325600 13.779053 26.340670 36.907494
562 188 1 0.651200 40.204444 44.890183 51.062093
563 188 2 -0.325600 42.246295 44.088409 51.161146
564 188 2 -0.325600 38.162592 45.691956 50.963039
565 189 1 0.651200 23.928726 36.167480 68.175578
566 189 2 -0.325600 21.830862 36.814479 68.222174
567 189 2 -0.325600 26.026589 35.520481 68.128982
568 190 1 0.651200 14.955068 3.190610 70.320521
569 190 2 -0.325600 15.380816 4.213826 72.216194
570 190 2 -0.325600 14.529320 2.167394 68.424847
571 191 1 0.651200 43.008141 32.855474 73.469196
572 191 2 -0.325600 42.228646 34.908103 73.499405
573 191 2 -0.325600 43.787635 30.802845 73.438988
574 192 1 0.651200 43.035700 72.127867 58.290364
575 192 2 -0.325600 43.025974 70.272193 57.116401
576 192 2 -0.325600 43.045427 73.983541 59.464327
577 193 1 0.651200 11.216135 34.343749 9.833731
578 193 2 -0.325600 10.165648 36.241280 9.490713
579 193 2 -0.325600 12.266623 32.446218 10.176748
580 194 1 0.651200 40.349839 11.613549 80.512622
581 194 2 -0.325600 42.236132 12.522255 81.174408
582 194 2 -0.325600 38.463546 10.704843 79.850836
583 195 1 0.651200 49.972605 18.971632 26.212002
584 195 2 -0.325600 49.021592 17.028700 25.834646
585 195 2 -0.325600 50.923617 20.914565 26.589358
586 196 1 0.651200 31.034127 15.970080 54.611183
587 196 2 -0.325600 31.407429 17.526537 56.114478
588 196 2 -0.325600 30.660825 14.413623 53.107887
589 197 1 0.651200 4.639721 31.401640 62.182734
590 197 2 -0.325600 6.226017 31.832147 60.726665
591 197 2 -0.325600 3.053425 30.971132 63.638804
592 198 1 0.651200 4.780250 44.966038 31.175333
593 198 2 -0.325600 6.260228 44.096793 29.805703
594 198 2 -0.325600 3.300272 45.835283 32.544964
595 199 1 0.651200 47.656756 54.677849 15.135585
596 199 2 -0.325600 45.622900 53.888790 15.385835
597 199 2 -0.325600 49.690612 55.466908 14.885335
598 200 1 0.651200 7.408345 65.082920 9.878190
599 200 2 -0.325600 9.180868 65.008949 11.172215
600 200 2 -0.325600 5.635822 65.156890 8.584166
601 201 1 0.651200 39.835968 -0.000036 56.454240
602 201 2 -0.325600 42.017325 -0.000048 56.202260
603 201 2 -0.325600 37.654612 -0.000024 56.706220
604 202 1 0.651200 54.151830 14.187641 68.999940
605 202 2 -0.325600 53.936399 12.002441 68.982587
606 202 2 -0.325600 54.367261 16.372841 69.017294
607 203 1 0.651200 2.982301 57.017796 45.435053
608 203 2 -0.325600 4.393846 58.699062 45.383161
609 203 2 -0.325600 1.570755 55.336530 45.486945
610 204 1 0.651200 34.813178 47.724452 24.815156