650
# CELL(abcABC):   94.48631    94.48631    94.48631    90.00000    90.00000    90.00000  Step:        1000  Bead:       0 x_centroid{angstrom}  cell{atomic_unit}
       C  5.12080e+00  1.96748e+01  2.95661e+01
       O  4.32439e+00  1.93979e+01  2.87656e+01
       O  5.91771e+00  1.99488e+01  3.03660e+01
       C  1.02973e+01  4.81996e+01  4.30636e+01
       O  9.20564e+00  4.85168e+01  4.28183e+01
       O  1.13865e+01  4.78797e+01  4.33108e+01
       C  4.64561e+01  3.25845e+01  1.09388e+01
       O  4.54438e+01  3.31330e+01  1.07770e+01
       O  4.74718e+01  3.20416e+01  1.10958e+01
       C  4.31060e+01  1.82236e+01  4.05988e+01
       O  4.37161e+01  1.92004e+01  4.07619e+01
       O  4.25010e+01  1.72448e+01  4.04335e+01
       C  1.37318e+01  4.81342e+01  1.54453e+01
       O  1.31154e+01  4.90484e+01  1.58132e+01
       O  1.43526e+01  4.72244e+01  1.50730e+01
       C  7.48323e+00  4.08130e+01  1.28498e+01
       O  8.39078e+00  4.14390e+01  1.24816e+01
       O  6.56792e+00  4.01971e+01  1.32156e+01
       C  9.90577e+00  1.95875e+01  4.56313e+01
       O  1.02389e+01  2.03739e+01  4.48435e+01
       O  9.57464e+00  1.88020e+01  4.64222e+01
       C  2.05621e+00  9.35953e+00  4.02920e+00
       O  1.00597e+00  9.28740e+00  3.53689e+00
       O  3.10600e+00  9.42911e+00  4.52285e+00
       C  2.65041e+01  4.63357e+01  3.90561e+01
       O  2.74329e+01  4.70062e+01  3.92535e+01
       O  2.55786e+01  4.56577e+01  3.88671e+01
       C  4.58633e+01  2.04468e+01  4.24729e+01
       O  4.58508e+01  2.13916e+01  4.17953e+01
       O  4.58737e+01  1.95036e+01  4.31529e+01
       C  7.65450e+00  1.15820e+01  2.20932e+01
       O  7.83006e+00  1.27312e+01  2.21148e+01
       O  7.48324e+00  1.04326e+01  2.20688e+01
       C  2.53563e+01  4.36752e+01  1.73872e+01
       O  2.52189e+01  4.33095e+01  1.62926e+01
       O  2.54866e+01  4.40427e+01  1.84824e+01
       C  3.42330e+01  3.24461e+01  3.05268e+01
       O  3.37327e+01  3.34708e+01  3.07510e+01
       O  3.47328e+01  3.14206e+01  3.03038e+01
       C  3.80533e+01  4.90031e+01  6.91159e+00
       O  3.77811e+01  4.93179e+01  5.82649e+00
       O  3.83268e+01  4.86888e+01  7.99650e+00
       C  7.03266e+00  8.50593e+00  2.42602e+01
       O  6.11187e+00  8.06705e+00  2.37028e+01
       O  7.95207e+00  8.93943e+00  2.48240e+01
       C  1.46714e+01  1.17099e+01  2.38959e+01
       O  1.35520e+01  1.14168e+01  2.37856e+01
       O  1.57930e+01  1.19954e+01  2.40101e+01
       C  3.48454e+01  4.48120e+01  3.53198e+01
       O  3.37671e+01  4.49184e+01  3.57419e+01
       O  3.59245e+01  4.47002e+01  3.49018e+01
       C  3.65690e+01  4.58821e+01  2.77741e+01
       O  3.58718e+01  4.61513e+01  2.86649e+01
       O  3.72634e+01  4.56142e+01  2.68819e+01
       C  3.09082e+01  3.33810e+01  4.50559e+01
       O  2.99885e+01  3.40905e+01  4.50001e+01
       O  3.18275e+01  3.26724e+01  4.51204e+01
       C  3.12006e+01  5.77058e+00  1.31788e+01
       O  3.04684e+01  6.67243e+00  1.32312e+01
       O  3.19246e+01  4.86261e+00  1.31291e+01
       C  4.72116e+01  1.71666e+01  1.87226e+01
       O  4.79608e+01  1.70482e+01  1.96041e+01
       O  4.64660e+01  1.72877e+01  1.78392e+01
       C  8.39496e+00  3.47915e+01  1.08549e+01
       O  8.31339e+00  3.36559e+01  1.06217e+01
       O  8.46907e+00  3.59292e+01  1.10841e+01
       C -1.38949e-01  2.49074e+01  1.43690e+01
       O -7.99866e-01  2.44509e+01  1.35280e+01
       O  5.24503e-01  2.53628e+01  1.52071e+01
       C  1.49345e+01  2.97457e+01  1.72779e+01
       O  1.43599e+01  3.06877e+01  1.69124e+01
       O  1.55114e+01  2.88039e+01  1.76407e+01
       C  1.40342e+01  8.69082e-01  2.42203e+01
       O  1.33345e+01  1.28139e+00  2.50520e+01
       O  1.47370e+01  4.62611e-01  2.33878e+01
       C  1.20924e+01  3.57617e+01  9.70840e+00
       O  1.12520e+01  3.49838e+01  9.91200e+00
       O  1.29353e+01  3.65364e+01  9.50933e+00
       C  2.28435e+01  4.51231e+01  3.77198e+01
       O  2.28176e+01  4.40225e+01  3.80935e+01
       O  2.28630e+01  4.62222e+01  3.73416e+01
       C  1.70120e+01  3.41429e+00  2.32571e+01
       O  1.77350e+01  3.75731e+00  2.24148e+01
       O  1.62865e+01  3.07443e+00  2.41001e+01
       C  3.41558e+01  2.64937e+01  4.48394e+01
       O  3.39356e+01  2.54079e+01  4.44850e+01
       O  3.43709e+01  2.75802e+01  4.51922e+01
       C  3.20943e+01  4.98044e+01  1.80775e+01
       O  3.24140e+01  5.07321e+01  1.87006e+01
       O  3.17664e+01  4.88742e+01  1.74624e+01
       C  1.75531e+01  1.43118e+01  2.30725e+01
       O  1.83635e+01  1.36566e+01  2.25572e+01
       O  1.67503e+01  1.49746e+01  2.35903e+01
       C  2.54606e+01  3.59642e+01  4.18156e+01
       O  2.44282e+01  3.61930e+01  4.22992e+01
       O  2.64964e+01  3.57419e+01  4.13377e+01
       C  3.71514e+01  2.98455e+01  2.94394e+01
       O  3.76995e+01  3.08708e+01  2.94268e+01
       O  3.66143e+01  2.88145e+01  2.94584e+01
       C  4.63400e+01  3.60644e+01  2.04839e+01
       O  4.66205e+01  3.58970e+01  1.93688e+01
       O  4.60609e+01  3.62292e+01  2.16005e+01
       C  4.68704e+01  2.98369e+01  1.31724e+01
       O  4.61961e+01  3.07052e+01  1.35511e+01
       O  4.75416e+01  2.89638e+01  1.28010e+01
       C  1.78361e+01  4.54252e+01  9.00503e+00
       O  1.79639e+01  4.65781e+01  9.08147e+00
       O  1.77067e+01  4.42722e+01  8.93084e+00
       C  1.40109e+00  4.42591e+00  3.75620e+01
       O  3.21026e-01  4.17574e+00  3.72120e+01
       O  2.48043e+00  4.67802e+00  3.79111e+01
       C  7.18764e+00  4.69628e+01  2.52731e+01
       O  7.14919e+00  4.71598e+01  2.64178e+01
       O  7.21875e+00  4.67612e+01  2.41283e+01
       C  3.93285e+01  3.44561e+01  8.41920e+00
       O  3.98106e+01  3.34021e+01  8.50737e+00
       O  3.88448e+01  3.55090e+01  8.32964e+00
       C  1.41728e+01  2.80927e+01  2.04621e+01
       O  1.36311e+01  2.90250e+01  2.00276e+01
       O  1.47143e+01  2.71617e+01  2.08991e+01
       C  4.01974e+01  1.03192e+01  2.70961e+01
       O  4.06832e+01  1.03505e+01  2.81518e+01
       O  3.97129e+01  1.03017e+01  2.60396e+01
       C  2.40390e+01  6.33082e+00  7.94174e+00
       O  2.32229e+01  7.14496e+00  8.08871e+00
       O  2.48577e+01  5.51890e+00  7.79485e+00
       C  3.05704e+01  2.75119e+01  4.60951e+01
       O  3.12918e+01  2.67826e+01  4.55464e+01
       O  2.98540e+01  2.82409e+01  4.66485e+01
       C  1.49118e+01  2.38507e+01  3.57662e+01
       O  1.44473e+01  2.48606e+01  3.54274e+01
       O  1.53690e+01  2.28389e+01  3.61125e+01
       C  3.56701e+01  9.14352e+00  4.41852e+01
       O  3.67273e+01  8.72350e+00  4.44241e+01
       O  3.46191e+01  9.57584e+00  4.39408e+01
       C  2.89189e+01  4.76650e+01  3.66879e+01
       O  2.81295e+01  4.69320e+01  3.62507e+01
       O  2.97062e+01  4.84009e+01  3.71258e+01
       C  2.85461e+01  2.49163e+01  4.45012e+01
       O  2.85112e+01  2.60682e+01  4.43493e+01
       O  2.85751e+01  2.37647e+01  4.46580e+01
       C  3.47067e+01  1.59488e+01  3.03782e+01
       O  3.38532e+01  1.51806e+01  3.01969e+01
       O  3.55566e+01  1.67192e+01  3.05644e+01
       C  3.37200e+01  7.58329e+00  1.03944e+01
       O  3.29849e+01  7.24085e+00  1.12273e+01
       O  3.44549e+01  7.92324e+00  9.56031e+00
       C  3.01151e+01  1.24494e+01  3.24719e+01
       O  2.98672e+01  1.26484e+01  3.35901e+01
       O  3.03615e+01  1.22394e+01  3.13554e+01
       C  3.97821e+00  2.54147e+01  8.16514e+00
       O  4.58538e+00  2.45409e+01  8.63267e+00
       O  3.37351e+00  2.62902e+01  7.69830e+00
       C  1.41160e+01  1.49579e+01  2.20063e+01
       O  1.43960e+01  1.38442e+01  2.18223e+01
       O  1.38390e+01  1.60735e+01  2.21792e+01
       C  1.09550e+01  1.28253e+01  2.33387e+01
       O  1.03763e+01  1.18398e+01  2.35538e+01
       O  1.15222e+01  1.38146e+01  2.31129e+01
       C  2.50476e+01  3.51839e+01  4.53421e+01
       O  2.52685e+01  3.43069e+01  4.46113e+01
       O  2.48234e+01  3.60593e+01  4.60726e+01
       C  4.74363e+01  9.27547e+00  2.77894e+01
       O  4.78235e+01  1.00076e+01  2.86052e+01
       O  4.70526e+01  8.54481e+00  2.69709e+01
       C  1.63704e+01  2.31838e+01  3.90633e+01
       O  1.63797e+01  2.20930e+01  3.94630e+01
       O  1.63609e+01  2.42774e+01  3.86682e+01
       C  2.58692e+01  1.88957e+01  4.33438e+01
       O  2.59115e+01  1.77343e+01  4.33527e+01
       O  2.58271e+01  2.00572e+01  4.33354e+01
       C  4.43020e+01  1.59363e+01  2.14479e+01
       O  4.34515e+01  1.59564e+01  2.22392e+01
       O  4.51546e+01  1.59227e+01  2.06573e+01
       C  5.22909e+00  2.46278e+01  9.20369e-01
       O  4.23900e+00  2.50547e+01  1.35340e+00
       O  6.21779e+00  2.41983e+01  4.85241e-01
       C  2.89199e+01  4.08223e+01  2.56848e+01
       O  2.93079e+01  3.98506e+01  2.51791e+01
       O  2.85326e+01  4.17953e+01  2.61885e+01
       C  2.96824e+01  2.39031e+01  4.78047e+01
       O  2.98787e+01  2.28265e+01  4.81958e+01
       O  2.94796e+01  2.49823e+01  4.74215e+01
       C  1.39482e+01  2.06281e+01  2.12391e+01
       O  1.30320e+01  2.10810e+01  2.06847e+01
       O  1.48680e+01  2.01765e+01  2.17882e+01
       C  1.51892e+01  4.94711e+01  3.58092e+00
       O  1.51322e+01  4.83102e+01  3.60890e+00
       O  1.52437e+01  5.06317e+01  3.54880e+00
       C  2.96089e+01  2.13247e+00  3.78079e+01
       O  2.98363e+01  1.62476e+00  3.67875e+01
       O  2.93723e+01  2.64918e+00  3.88219e+01
       C  8.86885e+00  2.32436e+01  1.60087e+00
       O  9.33384e+00  2.29389e+01  5.80207e-01
       O  8.40993e+00  2.35473e+01  2.62491e+00
       C  2.32776e+01  3.32566e+01  4.26088e+01
       O  2.40565e+01  3.31761e+01  4.17495e+01
       O  2.24955e+01  3.33379e+01  4.34648e+01
       C  2.47000e+00  2.19542e+01  2.84408e+01
       O  3.24543e+00  2.22160e+01  2.92664e+01
       O  1.69384e+00  2.16951e+01  2.76157e+01
       C  4.42377e+01  1.71466e+01  4.40170e+01
       O  4.33365e+01  1.77264e+01  4.35660e+01
       O  4.51313e+01  1.65534e+01  4.44653e+01
       C  2.17543e+01  1.87453e+01  1.29785e+01
       O  2.09288e+01  1.88099e+01  1.37940e+01
       O  2.25800e+01  1.86840e+01  1.21632e+01
       C  3.21986e+01  2.26887e+01  2.81335e+01
       O  3.26483e+01  2.32164e+01  2.72003e+01
       O  3.17459e+01  2.21588e+01  2.90633e+01
       C  1.21919e+01  1.27842e+00  4.48725e+00
       O  1.20212e+01  2.42766e+00  4.48572e+00
       O  1.23596e+01  1.27724e-01  4.48838e+00
       C  2.90585e+01  4.34706e+01  1.85290e+01
       O  2.83740e+01  4.32949e+01  1.76060e+01
       O  2.97416e+01  4.36470e+01  1.94523e+01
       C  2.66122e+01  5.25401e+00  4.25691e+01
       O  2.77238e+01  5.59423e+00  4.25695e+01
       O  2.55007e+01  4.91460e+00  4.25719e+01
       C  1.67638e+01  1.50851e+01  1.92876e+01
       O  1.67124e+01  1.54720e+01  2.03831e+01
       O  1.68078e+01  1.47021e+01  1.81912e+01
       C  1.15328e+01  3.42224e+01  1.28473e+01
       O  1.04012e+01  3.42949e+01  1.31036e+01
       O  1.26640e+01  3.41497e+01  1.25876e+01
       C  7.23864e+00  3.50100e+01  4.55868e+01
       O  7.97442e+00  3.48442e+01  4.64707e+01
       O  6.50420e+00  3.51810e+01  4.47017e+01
       C  8.81870e+00  3.29649e+01  3.87599e+01
       O  8.26304e+00  3.24938e+01  3.96658e+01
       O  9.36865e+00  3.34413e+01  3.78536e+01
       C  2.00184e+01  4.31267e+01  1.08622e+01
       O  1.98858e+01  4.19772e+01  1.09732e+01
       O  2.01518e+01  4.42766e+01  1.07563e+01
       C  2.35790e+01  4.02648e+01  2.43908e+00
       O  2.42201e+01  4.11223e+01  1.98595e+00
       O  2.29367e+01  3.94100e+01  2.89532e+00
       C  3.39784e+01  1.27748e+01  3.20468e+01
       O  3.30722e+01  1.31619e+01  3.26647e+01
       O  3.48819e+01  1.23845e+01  3.14288e+01
       C  4.31300e+01  3.92228e+01  2.54641e+01
       O  4.40298e+01  3.92500e+01  2.61989e+01
       O  4.22227e+01  3.91945e+01  2.47373e+01
       C  1.10926e+01  4.65545e+01  1.81337e+01
       O  1.03948e+01  4.66370e+01  1.90602e+01
       O  1.17960e+01  4.64770e+01  1.72118e+01
       C  4.84762e+01  2.13008e+01  1.35998e+01
       O  4.87095e+01  2.16359e+01  1.46887e+01
       O  4.82491e+01  2.09724e+01  1.25082e+01
       C  4.09610e+01  4.86585e+01  3.63134e+01
       O  4.10332e+01  4.92279e+01  3.73239e+01
       O  4.08902e+01  4.80860e+01  3.53043e+01
       C  2.84434e+01  2.30277e+01  9.67103e+00
       O  2.91940e+01  2.26813e+01  8.85432e+00
       O  2.76931e+01  2.33790e+01  1.04861e+01
       C  2.15617e+01  4.06371e+01  8.66394e+00
       O  2.15061e+01  3.94940e+01  8.86608e+00
       O  2.16235e+01  4.17815e+01  8.46728e+00
       C  1.29913e+01  1.81895e+01  2.40386e+01
       O  1.24846e+01  1.88409e+01  2.32195e+01
       O  1.34920e+01  1.75465e+01  2.48676e+01
       C  3.41703e+01  1.08719e+00  3.89435e+01
       O  3.30502e+01  1.39455e+00  3.88890e+01
       O  3.52894e+01  7.76464e-01  3.89895e+01
       C  3.06191e+01  5.00139e+01  3.44242e+01
       O  3.17131e+01  5.03902e+01  3.45418e+01
       O  2.95277e+01  4.96320e+01  3.42997e+01
       C  3.11031e+01  4.35497e+01  2.86295e+00
       O  3.20536e+01  4.41738e+01  3.10254e+00
       O  3.01520e+01  4.29252e+01  2.62508e+00
       C  4.29441e+01  4.18078e+01  4.60420e+01
       O  4.28792e+01  4.09414e+01  4.52697e+01
       O  4.30042e+01  4.26678e+01  4.68215e+01
       C  3.52168e+01  9.19890e-01  1.55833e+01
       O  3.61156e+01  1.39482e+00  1.50201e+01
       O  3.43187e+01  4.43320e-01  1.61469e+01
       C  3.41315e+01  5.73913e+00  4.59623e+01
       O  3.44455e+01  6.74745e+00  4.54758e+01
       O  3.38148e+01  4.73225e+00  4.64495e+01
       C  2.66154e+01  3.08834e+00  7.51076e+00
       O  2.75158e+01  3.74032e+00  7.17145e+00
       O  2.57213e+01  2.42778e+00  7.85051e+00
       C  4.40558e+01  2.93587e+01  1.03105e+01
       O  4.31200e+01  2.87806e+01  9.93556e+00
       O  4.49969e+01  2.99260e+01  1.06912e+01
       C  4.71720e+01  1.75391e+01  1.40364e+01
       O  4.76524e+01  1.85145e+01  1.44479e+01
       O  4.66934e+01  1.65646e+01  1.36220e+01
       C  3.56910e+01  1.61234e+01  3.37195e+01
       O  3.58302e+01  1.71696e+01  3.42065e+01
       O  3.55510e+01  1.50783e+01  3.32286e+01
       C  1.74126e+01  3.61313e-01  2.50737e+01
       O  1.66027e+01  5.22002e-02  2.58480e+01
       O  1.82219e+01  6.74251e-01  2.43003e+01
       C  6.55028e+00  1.35571e+01  4.95781e+00
       O  5.80064e+00  1.33106e+01  4.10446e+00
       O  7.29944e+00  1.38017e+01  5.81219e+00
       C  1.25648e+01  4.71273e+01  4.80285e+00
       O  1.30804e+01  4.72869e+01  5.83273e+00
       O  1.20469e+01  4.69635e+01  3.77535e+00
       C  4.50315e+01  3.91555e+01  2.18611e+01
       O  4.52234e+01  3.90162e+01  2.07229e+01
       O  4.48490e+01  3.92974e+01  2.30005e+01
       C  1.78126e+01  2.61133e+01  3.67268e+01
       O  1.75647e+01  2.52914e+01  3.59427e+01
       O  1.80656e+01  2.69355e+01  3.75081e+01
       C  3.17482e+01  4.47550e+01  3.80463e+01
       O  3.09470e+01  4.54342e+01  3.75472e+01
       O  3.25451e+01  4.40762e+01  3.85509e+01
       C  3.74825e+01  4.60501e+01  3.12949e+01
       O  3.67024e+01  4.63680e+01  3.20969e+01
       O  3.82591e+01  4.57302e+01  3.04912e+01
       C  2.97696e+01  6.93156e+00  2.04253e+01
       O  3.02108e+01  6.61452e+00  1.93975e+01
       O  2.93350e+01  7.24972e+00  2.14549e+01
       C  1.40413e+01  3.32131e+01  1.52733e+01
       O  1.51601e+01  3.30445e+01  1.50057e+01
       O  1.29226e+01  3.33881e+01  1.55370e+01
       C  4.46073e+01  4.36009e+01  4.27638e+01
       O  4.42595e+01  4.34548e+01  4.38633e+01
       O  4.49527e+01  4.37445e+01  4.16635e+01
       C  7.69915e+00  4.82535e+01  4.00943e+01
       O  6.59190e+00  4.81750e+01  4.04382e+01
       O  8.80705e+00  4.83286e+01  3.97494e+01
       C  3.42490e+00  4.72241e+01  3.44272e+01
       O  2.58346e+00  4.76086e+01  3.37234e+01
       O  4.26636e+00  4.68425e+01  3.51322e+01
       C  2.49269e+01  4.13682e+01  4.90289e+01
       O  2.41160e+01  4.05428e+01  4.89172e+01
       O  2.57373e+01  4.21943e+01  4.91372e+01
       C  3.35829e+01  7.06054e+00 -1.81059e-01
       O  3.32868e+01  7.10127e+00  9.41839e-01
       O  3.38782e+01  7.01975e+00 -1.30464e+00
       C  3.46585e+01  3.64261e+00  4.23664e+01
       O  3.46330e+01  2.96481e+00  4.14223e+01
       O  3.46829e+01  4.32054e+00  4.33104e+01
       C  5.39847e+00  7.97299e+00  2.07852e+01
       O  5.96684e+00  6.96639e+00  2.06643e+01
       O  4.82759e+00  8.97975e+00  2.08933e+01
       C  1.76254e+01  2.78620e+01  2.76517e+00
       O  1.79161e+01  2.68766e+01  2.22225e+00
       O  1.73360e+01  2.88497e+01  3.30505e+00
       C  2.34258e+01  1.45006e+01  4.18684e+01
       O  2.30585e+01  1.56025e+01  4.18305e+01
       O  2.37932e+01  1.33983e+01  4.19042e+01
       C  3.28936e+01  3.00188e+01  4.39596e+01
       O  3.19312e+01  2.96052e+01  4.44645e+01
       O  3.38547e+01  3.04286e+01  4.34502e+01
       C  1.24440e+01  1.23509e+01  3.42154e+01
       O  1.21781e+01  1.21126e+01  3.53220e+01
       O  1.27034e+01  1.25887e+01  3.31076e+01
       C  2.23572e+01  4.31350e+01  4.09819e+01
       O  2.20463e+01  4.42515e+01  4.10731e+01
       O  2.26678e+01  4.20181e+01  4.08996e+01
       C  1.55316e+01  2.10850e+01  3.34615e+01
       O  1.49306e+01  2.20397e+01  3.31806e+01
       O  1.61324e+01  2.01302e+01  3.37400e+01
       C  4.28492e+01  2.19975e+01  4.14090e+01
       O  4.28862e+01  2.17194e+01  4.25373e+01
       O  4.28039e+01  2.22792e+01  4.02819e+01
       C  2.85968e+01  5.51606e+00  3.95410e+01
       O  2.74665e+01  5.24383e+00  3.95571e+01
       O  2.97247e+01  5.79569e+00  3.95189e+01
       C  2.20361e+01  2.62269e+01  2.74630e+01
       O  2.10939e+01  2.68205e+01  2.71288e+01
       O  2.29804e+01  2.56356e+01  2.77938e+01
       C  6.40334e+00  3.07301e+01  4.11868e+01
       O  6.99490e+00  3.09510e+01  4.21632e+01
       O  5.80608e+00  3.04994e+01  4.02166e+01
       C  1.02515e+01  3.78329e+01  1.26024e+01
       O  9.36794e+00  3.84770e+01  1.29967e+01
       O  1.11411e+01  3.71943e+01  1.22112e+01
       C  4.65522e+01  2.38313e+01  1.50693e+01
       O  4.60069e+01  2.31118e+01  1.43372e+01
       O  4.70965e+01  2.45534e+01  1.57997e+01
       C  1.59621e+01  4.75998e+01  6.61464e+00
       O  1.60450e+01  4.64422e+01  6.68407e+00
       O  1.58879e+01  4.87578e+01  6.54222e+00
       C  1.08216e+01  9.37720e+00  3.55053e+01
       O  1.05030e+01  9.40859e+00  3.66227e+01
       O  1.11404e+01  9.35159e+00  3.43876e+01
       C  4.48724e+01  3.37721e+00  1.51292e+01
       O  4.48746e+01  3.27829e+00  1.39709e+01
       O  4.48724e+01  3.47823e+00  1.62868e+01
       C  2.62249e+01  3.20460e+01  1.13254e+01
       O  2.66287e+01  3.28780e+01  1.20297e+01
       O  2.58201e+01  3.12123e+01  1.06242e+01
       C  1.78288e+01  1.17150e+01  1.95619e+01
       O  1.69242e+01  1.22068e+01  2.01016e+01
       O  1.87331e+01  1.12219e+01  1.90238e+01
       C  2.21598e+01  3.68449e+01  4.34464e+00
       O  2.31688e+01  3.63729e+01  4.01310e+00
       O  2.11492e+01  3.73108e+01  4.68107e+00
       C  1.08996e+01  3.66973e+01  5.88353e+00
       O  1.07869e+01  3.70450e+01  4.78043e+00
       O  1.10090e+01  3.63493e+01  6.98726e+00
       C -9.57902e-02  1.98519e+01  4.28477e+01
       O -1.10802e+00  2.03393e+01  4.25492e+01
       O  9.18435e-01  1.93691e+01  4.31451e+01
       C  2.52614e+01  2.76902e+01  2.68211e+01
       O  2.42347e+01  2.81533e+01  2.65315e+01
       O  2.62888e+01  2.72307e+01  2.71092e+01
       C  4.46885e+01  1.07893e+01  2.98196e+01
       O  4.46219e+01  1.16305e+01  3.06190e+01
       O  4.47584e+01  9.95510e+00  2.90129e+01
       C  2.00097e+01  3.19525e+00  4.43691e+01
       O  2.07443e+01  2.56212e+00  4.50094e+01
       O  1.92739e+01  3.82810e+00  4.37298e+01
       C  1.72131e+01  4.75587e+01  1.63824e+01
       O  1.78375e+01  4.66385e+01  1.60452e+01
       O  1.65911e+01  4.84806e+01  1.67216e+01
       C  3.78787e+01  1.09445e+01  8.60258e+00
       O  3.81683e+01  1.14095e+01  7.57734e+00
       O  3.75939e+01  1.04810e+01  9.63003e+00
       C  4.10704e+01  1.32745e+01  3.55249e+00
       O  4.16236e+01  1.42611e+01  3.82007e+00
       O  4.05211e+01  1.22863e+01  3.28228e+00
       C  3.04146e+01  7.24437e+00  1.64513e+01
       O  3.11026e+01  6.33684e+00  1.62173e+01
       O  2.97274e+01  8.15359e+00  1.66799e+01
       C  4.09661e+01  3.93625e+01  2.20056e+01
       O  3.98923e+01  3.94962e+01  2.24297e+01
       O  4.20361e+01  3.92295e+01  2.15706e+01
       C  7.77487e+00  1.16479e+01  4.13022e+01
       O  8.45520e+00  1.16389e+01  4.22452e+01
       O  7.08508e+00  1.16635e+01  4.03670e+01
       C  8.81939e+00  4.66904e+01  2.15801e+01
       O  7.88683e+00  4.65703e+01  2.08946e+01
       O  9.75428e+00  4.68189e+01  2.22602e+01
       C  3.27026e+01  2.33096e+01  4.55154e+00
       O  3.27669e+01  2.41512e+01  5.35092e+00
       O  3.26409e+01  2.24669e+01  3.75385e+00
       C  2.77548e+01  3.63629e+01  1.29872e+01
       O  2.75640e+01  3.63147e+01  1.18418e+01
       O  2.79477e+01  3.64167e+01  1.41320e+01
       C  3.91706e+01  3.29960e+01  2.79488e+01
       O  3.85202e+01  3.38309e+01  2.84295e+01
       O  3.98248e+01  3.21679e+01  2.74610e+01
       C  2.19820e+01  2.96836e+01  2.79533e+01
       O  2.23945e+01  2.90950e+01  2.88672e+01
       O  2.15719e+01  3.02717e+01  2.70383e+01
       C  8.06476e+00  1.27028e+01  2.54318e+01
       O  8.92297e+00  1.34147e+01  2.57602e+01
       O  7.20420e+00  1.19962e+01  2.50978e+01
       C  9.53578e+00  1.07869e+00  4.10663e+01
       O  1.06204e+01  8.92894e-01  4.14408e+01
       O  8.44985e+00  1.26369e+00  4.06953e+01
       C  1.94079e+01  3.96390e+01  5.32962e+00
       O  1.84825e+01  3.91865e+01  4.79145e+00
       O  2.03270e+01  4.01046e+01  5.86895e+00
       C  3.29799e+01  2.69025e+01  3.89628e+00
       O  3.29282e+01  2.61385e+01  3.02144e+00
       O  3.30323e+01  2.76690e+01  4.76808e+00
       C  4.26290e+01  4.72022e+01  1.28580e-01
       O  4.26398e+01  4.74137e+01 -1.01479e+00
       O  4.26173e+01  4.69880e+01  1.27068e+00
       C  4.55908e+01  1.52105e+01  4.12454e+01
       O  4.57823e+01  1.40686e+01  4.11515e+01
       O  4.53980e+01  1.63537e+01  4.13357e+01
       C  3.83208e+01  2.63310e+01  2.90813e+01
       O  3.76064e+01  2.55693e+01  2.95919e+01
       O  3.90404e+01  2.70898e+01  2.85733e+01
       C  2.72744e+01  4.24436e+01  1.74186e+00
       O  2.74199e+01  4.12925e+01  1.66590e+00
       O  2.71252e+01  4.35937e+01  1.82239e+00
       C  1.38047e+01  2.42805e+01  2.03540e+01
       O  1.29867e+01  2.48712e+01  1.97763e+01
       O  1.46223e+01  2.36881e+01  2.09301e+01
       C  4.24077e+01  4.83811e-01  4.88974e+01
       O  4.31028e+01  3.28800e-01  4.98159e+01
       O  4.17108e+01  6.40135e-01  4.79803e+01
       C  2.05050e+01  1.41632e+01  2.05147e+01
       O  1.96156e+01  1.42136e+01  1.97670e+01
       O  2.13952e+01  1.41174e+01  2.12600e+01
       C  3.16703e+01  3.48293e+01  4.13566e+01
       O  3.17563e+01  3.56023e+01  4.04931e+01
       O  3.15902e+01  3.40507e+01  4.22166e+01
       C  4.56234e+01  4.52736e+00  4.25432e+01
       O  4.67169e+01  4.48691e+00  4.21519e+01
       O  4.45301e+01  4.56608e+00  4.29351e+01
       C  3.85512e+01  4.61787e+01  3.45179e+01
       O  3.90789e+01  4.53262e+01  3.39299e+01
       O  3.80258e+01  4.70359e+01  3.51025e+01
       C  1.66713e+01  3.56846e+01  1.46541e+01
       O  1.77515e+01  3.52964e+01  1.44732e+01
       O  1.55924e+01  3.60771e+01  1.48384e+01
       C  3.90425e+01  1.65559e+01  3.54254e+01
       O  3.97157e+01  1.74535e+01  3.57281e+01
       O  3.83711e+01  1.56572e+01  3.51202e+01
       C  9.94979e+00  4.36865e+01  1.98912e+01
       O  1.05192e+01  4.35668e+01  1.88839e+01
       O  9.38321e+00  4.38095e+01  2.08985e+01
       C  1.13436e+01  1.20961e+01  4.75550e+01
       O  1.11227e+01  1.31747e+01  4.79287e+01
       O  1.15716e+01  1.10163e+01  4.71906e+01
       C  3.93201e+01  4.86971e+01  4.86084e+01
       O  3.99083e+01  4.87981e+01  4.96063e+01
       O  3.87304e+01  4.85929e+01  4.76125e+01
       C  2.61248e+01  1.70437e+01  4.14679e+00
       O  2.61115e+01  1.59963e+01  3.64362e+00
       O  2.61373e+01  1.80927e+01  4.64679e+00
       C  4.48540e+01  6.29309e+00  2.41540e+01
       O  4.46691e+01  7.42136e+00  2.39423e+01
       O  4.50451e+01  5.16587e+00  2.43624e+01
       C  6.67129e-01  4.92938e+01  3.19290e+01
       O  8.63014e-01  5.01916e+01  3.26416e+01
       O  4.64515e-01  4.84030e+01  3.12107e+01
       C  4.20912e+01  2.86420e+00  1.26673e+01
       O  4.18346e+01  2.90118e+00  1.38010e+01
       O  4.23452e+01  2.82808e+00  1.15341e+01
       C  3.16262e+01  2.61275e+01  4.25957e+01
       O  3.22495e+01  2.70970e+01  4.24405e+01
       O  3.10012e+01  2.51606e+01  4.27584e+01
       C  6.45785e+00  1.43594e+01  8.69625e+00
       O  7.54013e+00  1.45235e+01  9.08664e+00
       O  5.37283e+00  1.41959e+01  8.31207e+00
       C  3.56718e+01  4.84951e+01  3.40384e+01
       O  3.63966e+01  4.92719e+01  3.35659e+01
       O  3.49426e+01  4.77234e+01  3.45126e+01
       C  3.20981e+01  2.30173e+01  4.46210e+01
       O  3.25933e+01  2.25102e+01  4.36996e+01
       O  3.16057e+01  2.35213e+01  4.55458e+01
       C  3.94985e+01  2.92839e+01  2.65277e+01
       O  4.06300e+01  2.90749e+01  2.63645e+01
       O  3.83647e+01  2.94907e+01  2.66846e+01
       C  3.47661e+01  2.38482e+01  4.20432e+01
       O  3.55995e+01  2.32328e+01  4.25701e+01
       O  3.39401e+01  2.44701e+01  4.15109e+01
       C  1.87702e+01  2.87575e+01  2.68836e+01
       O  1.89446e+01  2.89598e+01  2.80153e+01
       O  1.85893e+01  2.85582e+01  2.57530e+01
       C  3.93708e+01 -7.31624e-01  3.29840e+01
       O  3.91419e+01 -1.71035e+00  3.23990e+01
       O  3.96055e+01  2.45231e-01  3.35685e+01
       C  2.60990e+01  1.65253e+00  2.79100e+01
       O  2.49432e+01  1.55110e+00  2.78424e+01
       O  2.72543e+01  1.75693e+00  2.79788e+01
       C  2.18316e+01  1.14733e+01  4.34059e+01
       O  2.12804e+01  1.24968e+01  4.34232e+01
       O  2.23791e+01  1.04484e+01  4.33911e+01
       C  4.31987e+01  9.95946e+00  2.45403e+01
       O  4.27048e+01  9.43243e+00  2.54518e+01
       O  4.36843e+01  1.04992e+01  2.36329e+01
       C  1.34137e+01  1.03932e+01  3.75488e+01
       O  1.36518e+01  9.61001e+00  3.67232e+01
       O  1.31717e+01  1.11746e+01  3.83743e+01
       C  5.20914e+00  3.22161e+01  4.43275e+01
       O  5.92204e+00  3.22319e+01  4.52455e+01
       O  4.49162e+00  3.21987e+01  4.34130e+01
       C  6.50434e+00  4.46781e+01  1.91153e+01
       O  5.49979e+00  4.46296e+01  1.96977e+01
       O  7.50766e+00  4.47149e+01  1.85281e+01
       C  4.13162e+01  6.80800e+00  2.60467e+01
       O  4.05956e+01  7.33356e+00  2.67922e+01
       O  4.20345e+01  6.27912e+00  2.53013e+01
       C  2.46216e+01  4.83311e+01  3.61214e+01
       O  2.53086e+01  4.83283e+01  3.70597e+01
       O  2.39410e+01  4.83413e+01  3.51794e+01
       C  4.74772e+01  1.39713e+01  2.05484e+01
       O  4.75178e+01  1.39817e+01  1.93864e+01
       O  4.74336e+01  1.39597e+01  2.17098e+01
       C  4.21964e+01  2.08540e+01  3.76699e+01
       O  4.19186e+01  1.99712e+01  3.83736e+01
       O  4.24757e+01  2.17298e+01  3.69583e+01
       C  1.99878e+00  4.20301e+01  4.20726e+01
       O  8.77694e-01  4.20721e+01  4.23759e+01
       O  3.11990e+00  4.19931e+01  4.17687e+01
       C  3.42927e+01  1.11190e+01  9.53279e+00
       O  3.48880e+01  1.15132e+01  8.61539e+00
       O  3.36956e+01  1.07290e+01  1.04508e+01
       C  2.86293e+01  3.63761e+01  4.35157e+01
       O  2.76371e+01  3.63379e+01  4.41213e+01
       O  2.96179e+01  3.64243e+01  4.29061e+01
       C  4.12097e+01  1.07456e+01  3.10261e+01
       O  4.20351e+01  9.92658e+00  3.10288e+01
       O  4.03896e+01  1.15694e+01  3.10304e+01
       C  1.08250e+01  4.86683e+01  2.43693e+01
       O  1.18396e+01  4.88934e+01  2.38483e+01
       O  9.81061e+00  4.84479e+01  2.48931e+01
       C  3.24370e+01  4.76242e+01  3.61295e+01
       O  3.30753e+01  4.78270e+01  3.70801e+01
       O  3.17917e+01  4.74268e+01  3.51824e+01
       C  5.39495e-02  1.51808e+01  1.82311e+01
       O -4.37327e-01  1.57017e+01  1.73150e+01
       O  5.43451e-01  1.46620e+01  1.91488e+01
       C  7.48971e+00  1.69321e+01  4.51108e+01
       O  7.78369e+00  1.76345e+01  4.42324e+01
       O  7.19561e+00  1.62361e+01  4.59944e+01
       C  4.32282e+01  1.67925e+01  3.46130e+00
       O  4.29030e+01  1.67886e+01  2.34523e+00
       O  4.35609e+01  1.68052e+01  4.57486e+00
       C  5.02405e+01  1.91060e+00  3.50880e+01
       O  5.13726e+01  2.00570e+00  3.53352e+01
       O  4.91075e+01  1.81598e+00  3.48461e+01
       C  3.80734e+01  2.57816e+01  4.51133e+01
       O  3.70438e+01  2.58388e+01  4.45761e+01
       O  3.91007e+01  2.57279e+01  4.56533e+01
       C  3.77275e+01  1.24091e+01  4.77281e+00
       O  3.82740e+01  1.34082e+01  5.00829e+00
       O  3.71771e+01  1.14150e+01  4.52817e+00
       C  3.57031e+01  2.37719e+01  2.80235e+01
       O  3.51813e+01  2.32306e+01  2.89103e+01
       O  3.62235e+01  2.43086e+01  2.71333e+01
       C  1.02949e+01  3.94307e+01  5.06955e+01
       O  1.12876e+01  3.97326e+01  5.12186e+01
       O  9.30174e+00  3.91318e+01  5.01709e+01
       C  3.17456e+01  1.59075e+01  3.25106e+01
       O  3.27448e+01  1.64282e+01  3.27986e+01
       O  3.07459e+01  1.53919e+01  3.22184e+01
       C  3.88903e+01  2.52883e+00  1.45880e+01
       O  3.87923e+01  2.52613e+00  1.34293e+01
       O  3.89952e+01  2.53505e+00  1.57456e+01
       C  4.01829e+01  2.37207e+01  3.65388e+01
       O  3.97409e+01  2.30336e+01  3.73660e+01
       O  4.06184e+01  2.44115e+01  3.57120e+01
       C  2.37331e+01  8.38759e+00  2.96270e+01
       O  2.46497e+01  8.62015e+00  3.03021e+01
       O  2.28150e+01  8.15181e+00  2.89538e+01
       C  1.58129e+01  1.05936e+01  3.36437e+01
       O  1.51906e+01  1.11898e+01  3.44242e+01
       O  1.64362e+01  1.00013e+01  3.28624e+01